# vtk DataFile Version 3.0
Output file generated by Yade's KinematicLocalisationAnalyser
ASCII
DATASET UNSTRUCTURED_GRID

POINTS 7062 float
284.417 41.7077 -0.179139
31.1052 33.7349 -0.374702
224.675 29.0659 0.25
263.643 5.4245 0.477252
58.0965 42.7452 -0.205927
183.325 37.0224 -0.322251
133.802 7.4324 0.274898
19.3415 2.3621 -0.270489
285.189 90.3343 -0.22164
200.719 41.9022 0.25978
269.106 2.69448 -0.461989
37.8712 27.0373 0.267332
96.6333 47.9742 0.329879
290.521 38.4504 0.455997
106.041 2.51173 0.238206
19.5358 42.8739 -0.24927
202.461 14.1077 -0.288771
307.241 39.7024 0.487755
280.698 8.79279 -0.495961
98.0272 39.2185 0.217308
281.921 60.306 0.238894
317.806 91.2523 -0.226531
197.527 11.8403 0.370378
260.906 9.36308 -0.6242
283.771 12.7806 -0.34521
144.723 43.5086 0.216857
324.103 44.2001 -0.467284
35.9295 7.34407 0.126793
130.391 15.4265 -0.228354
255.167 42.6579 -0.17012
302.513 22.7142 0.469908
179.929 5.87544 0.265014
285.528 22.8537 -0.219478
238.871 33.2527 0.154003
323.846 83.2979 0.248782
263.6 8.48952 -0.296121
307.859 10.3633 0.632938
88.4047 14.2634 -0.22411
232.787 5.76381 0.399004
295.445 8.77775 -0.334244
178.806 49.112 0.244899
315.65 61.0035 -0.366311
248.483 42.4298 -0.25459
286.01 36.8861 0.238388
73.4278 44.4887 0.159412
144.636 39.6406 0.207931
286.28 33.5691 0.309928
276.472 78.8317 -0.165639
201.884 43.3649 0.192884
59.2029 17.3581 -0.280271
310.856 46.3689 -0.535076
92.3124 11.1344 -0.240199
313.67 47.2015 -0.324115
210.119 49.1136 -0.0463027
256.351 37.3066 0.645517
247.377 27.5174 -0.230733
315.379 82.3976 -0.283521
216.122 22.0214 0.30984
9.38711 6.08575 -0.277096
251.567 45.1302 0.348283
131.475 25.8677 -0.264552
320.497 70.5071 -0.161405
141.283 12.3834 0.535083
176.474 12.4467 0.249016
84.016 33.4087 -0.270323
139.109 56.3701 -0.286699
69.5264 24.2813 0.293593
176.052 46.5902 0.29932
70.1552 6.97079 0.272961
246.126 66.6321 0.205611
2.44655 8.71803 -0.295907
297.66 51.2345 0.307574
281.031 41.7891 0.246454
3.49786 46.7026 -0.273168
274.862 24.9279 0.34863
15.9506 2.5126 0.260972
272.324 35.6709 0.218651
76.125 2.54411 0.235243
68.7021 17.6373 -0.315539
5.43025 32.0306 -0.353411
42.5007 18.5406 -0.375157
294.093 9.84797 0.355031
314.035 17.7645 0.340834
209.786 5.96174 0.355035
228.309 48.3451 0.274477
260.58 62.08 0.230183
312.394 66.5794 -0.130665
80.0496 40.1405 -0.234438
97.5094 23.5655 0.313005
10.0301 36.3647 0.24974
146.275 19.5848 -0.361618
258.403 46.2687 -0.46146
310.298 6.97222 0.505672
170.841 14.638 -0.205691
167.14 48.3991 0.248279
11.3012 14.5348 -0.220386
122.373 29.2261 0.279195
255.36 50.6135 -0.356682
149.567 8.37162 0.27432
223.371 24.1596 0.283149
200.862 39.8951 0.202896
167.985 17.0999 0.306994
304.79 4.23868 0.518912
249.146 24.9381 0.405692
166.496 34.0692 -0.179466
151.911 30.5142 0.208587
66.1282 40.0144 0.233639
62.209 47.6595 0.290182
318.905 42.1176 -0.328932
13.7279 36.5022 -0.353608
230.821 55.9104 -0.330997
82.3886 49.0172 -0.362113
119.478 43.5218 0.185747
15.0065 30.8618 0.176686
141.805 41.5226 0.194413
258.952 57.9029 -0.308528
225.885 22.3034 0.296157
308.996 52.3872 -0.227954
317.692 2.46027 0.62541
245.054 18.3647 -0.320481
166.65 12.4417 0.271602
142.423 25.8911 0.325016
165.856 2.46219 -0.305426
161.828 13.7818 0.367503
227.635 30.1575 -0.301218
66.0752 24.8568 -0.306176
171.263 50.2301 0.186759
126.375 30.1504 -0.334857
127.992 43.8908 0.238442
223.123 49.4666 0.192038
91.5561 9.28308 -0.188647
170.056 40.0762 -0.221876
273.968 2.4731 -0.438579
36.8674 5.6012 -0.176434
73.1781 10.4292 -0.273607
284.791 78.6046 -0.2302
298.458 77.5698 -0.157762
196.799 25.8982 -0.29138
275.703 18.9014 0.318504
70.0961 31.7355 0.4179
296.513 30.6766 -0.471688
14.0222 25.9415 -0.226198
286.457 87.0071 0.00522755
5.45638 15.9977 0.191392
22.0656 4.40966 0.385828
304.32 13.2176 -0.561655
215.091 8.93396 0.23707
56.3949 39.9104 0.224836
247.127 3.15556 -0.449354
225.342 44.5402 0.208085
187.983 10.3648 0.302442
217.101 60.2622 -0.209909
193.906 2.69548 -0.199373
193.727 5.70415 -0.326421
62.6959 2.41228 0.376749
5.39726 43.5295 0.245884
323.074 90.9486 0.246228
279.902 76.789 -0.1712
316.401 22.2448 -0.285591
203.361 50.1438 -0.161076
215.982 45.7147 -0.166245
38.4004 2.42422 -0.30392
308.284 47.1337 -0.342564
315.142 20.8261 0.159432
174.536 2.48227 -0.289678
317.388 88.0144 0.19372
38.1503 21.2869 -0.278688
259.87 6.82157 -0.420634
66.9346 41.6688 -0.316546
112.504 3.96789 0.300875
255.359 30.474 0.287121
321.086 37.6481 0.201076
13.2956 27.6572 0.229262
33.2169 15.7327 -0.238628
25.4852 27.8336 0.208606
114.102 3.76163 -0.510897
22.5404 41.0705 -0.154931
231.799 44.6007 0.167681
249.087 70.922 -0.187111
170.571 46.9761 -0.20532
258.373 5.62846 0.222193
4.69942 11.1163 0.189613
143.92 51.4549 -0.301975
253.894 7.10221 0.547875
206.224 23.7903 0.321073
322.317 4.54736 -0.425447
255.111 37.4278 -0.380421
57.7252 29.3985 0.319162
154.311 12.9675 -0.258086
31.608 26.4986 -0.167682
137.004 23.8256 0.423964
161.15 26.7743 0.260604
278.12 77.691 0.193192
216.901 8.88866 0.26607
150.301 11.6883 0.299269
37.6663 40.4143 -0.211651
296.498 7.47072 0.318522
140.063 11.7325 -0.332554
261.905 75.177 -0.245258
276.602 57.4242 -0.593029
205.634 13.9903 -0.300798
12.0462 43.1578 -0.254626
226.352 4.16133 -0.18528
312.536 73.7847 -0.222221
131.08 29.0781 -0.2908
185.52 51.1368 -0.218932
71.5253 31.9827 -0.318016
37.7315 7.33345 0.232193
300.222 94.7293 0.231546
25.4163 7.8023 -0.256675
200.61 45.0197 0.130526
26.8413 43.762 0.293629
163.84 24.222 0.166114
271.605 30.9554 0.350677
294.621 59.1531 0.43382
266.043 3.77654 0.460568
279.053 87.8558 -0.271093
243.52 12.0164 -0.371872
274.445 6.99367 -0.560253
311.929 57.5632 0.227972
314.134 78.8137 -0.236411
178.361 4.86211 -0.398586
253.65 62.1951 0.199594
250.233 63.5754 -0.198419
164.011 16.6231 -0.458544
232.025 69.5756 -0.263327
301.071 36.8147 -0.323844
262.625 12.3268 -0.481874
269.804 4.23132 0.419171
165.139 33.1733 0.532305
235.108 3.93284 -0.470045
111.535 28.4096 0.268907
261.82 4.42955 0.43209
241.995 51.8325 0.317241
207.467 4.46902 -0.238412
320.963 24.018 -0.267569
77.0418 7.19056 -0.2967
53.3769 44.1859 0.239962
242.74 34.0576 -0.227085
106.465 12.4179 -0.285223
42.0692 24.1752 0.447358
32.3265 44.3095 -0.275048
214.233 7.45799 -0.2806
287.34 13.9124 -0.288321
214.482 17.218 0.205375
175.841 27.3946 0.317443
135.709 52.8907 0.324693
121.488 24.5331 -0.331002
258.83 30.3512 0.185055
234.41 65.3904 -0.230149
130.815 42.3563 0.270447
125.902 24.7942 0.275855
319.439 94.5556 0.253928
92.3768 33.4468 -0.252793
212.579 10.4778 -0.287123
54.1766 37.1309 -0.229303
292.288 16.0114 -0.547274
276.59 20.3244 -0.359225
165.306 19.5981 -0.4412
117.447 39.418 0.476529
310.83 28.0226 -0.605899
292.467 56.1355 -0.317019
15.6111 43.0299 -0.195205
141.893 30.8496 0.28244
34.7601 25.0338 -0.309804
2.32644 19.9688 -0.245686
28.1156 19.2956 -0.313909
182.731 1.01518 0.28422
171.585 52.4791 -0.271687
116.878 15.258 -0.26037
246.013 54.8042 -0.221843
303.956 89.0855 0.255925
250.57 30.9695 0.364498
172.509 30.4778 -0.343843
280.248 17.0923 -0.181886
120.656 11.1494 -0.349859
187.459 18.5575 0.16367
280.807 91.2717 -0.28448
104.208 14.6463 0.263322
13.8412 15.9528 -0.32779
296.435 79.0698 -0.294507
81.5437 2.79042 0.143319
75.3179 15.5436 0.30746
194.029 40.416 -0.340352
145.401 32.1581 -0.242805
293.973 26.8765 0.269303
267.656 18.4182 0.344658
144.689 19.122 -0.260386
300.125 28.171 -0.380493
323.954 48.0003 0.375805
319.765 7.91203 -0.175923
210.655 35.4795 -0.29678
279.392 24.0446 -0.212195
309.478 45.9162 0.394615
297.324 71.0738 -0.193297
298.903 52.7655 0.16067
127.639 37.3507 0.273434
94.406 28.1616 0.188377
296.318 86.5975 -0.266982
63.6809 18.4351 -0.288341
105.541 7.60175 -0.267138
248.531 37.5323 0.287234
97.4306 3.23036 -0.448939
324.019 65.1864 0.350785
51.0716 39.2805 -0.263784
165.941 52.24 -0.266065
131.305 50.7313 -0.176533
166.514 26.7065 -0.245925
186.881 2.40523 -0.142404
31.4139 12.414 0.308058
271.709 26.9162 0.388945
148.384 44.515 0.296062
190.943 18.5365 -0.303364
76.2313 26.4742 0.272313
199.618 46.7729 0.187355
261.456 26.2637 0.286526
292.404 65.6349 -0.150621
102.697 50.3668 0.279878
238.17 48.5872 -0.209308
150.274 14.8859 -0.387489
232.125 26.7228 0.270107
293.087 40.7353 -0.335906
209.418 17.1799 -0.138183
161.908 19.695 0.18165
319.174 17.8294 0.679243
287.92 17.1911 0.179655
49.2837 8.4859 0.273162
241.923 3.50654 -0.44206
73.8014 0.920328 -0.273442
255.099 13.2566 -0.536188
159.426 26.9793 -0.337012
297.734 81.5503 0.123138
82.1097 28.3046 -0.286704
230.519 57.6667 0.198425
275.866 47.8732 0.242175
12.0252 39.7446 -0.307798
168.681 53.1465 -0.376386
322.491 104.793 -0.202421
132.053 18.1233 0.286691
292.95 73.1172 -0.222343
282.504 25.1526 0.290563
285.597 51.9094 0.16857
179.796 50.9127 0.234988
159.306 17.4286 0.309171
198.627 2.37646 -0.278127
222.279 44.2063 0.327351
228.853 23.7073 0.233359
277.728 66.4565 -0.235146
320.683 15.8785 0.365076
208.212 12.1499 0.238102
138.998 13.2818 0.257988
309.439 16.2994 0.312025
96.3113 39.6288 -0.250404
266.974 59.3966 -0.18485
151.343 40.3851 -0.231202
200.876 36.2869 0.260425
276.436 86.1382 0.140755
267.22 47.9857 -0.271384
301.281 60.5722 0.283571
105.095 0.895796 -0.27858
228.709 40.5348 0.273834
307.969 62.9984 -0.203288
46.2721 38.7372 -0.20699
134.047 13.827 0.151081
290.044 54.0829 0.273552
54.1999 29.8665 0.322016
196.936 32.6393 -0.14459
281.11 67.2057 -0.370154
291.806 3.65653 0.417185
276.7 37.4432 -0.33039
306.831 88.2344 -0.284273
261.419 45.0568 -0.32787
104.976 44.1245 -0.172061
202.883 24.132 0.183141
46.0019 19.8139 0.173924
282.045 72.4267 -0.202446
45.3018 28.5023 -0.307984
108.916 3.87761 0.417881
296.798 73.0192 0.122507
287.953 62.175 0.347584
82.5879 20.2831 -0.213387
316.454 43.4842 -0.494922
8.8455 40.046 -0.365272
24.6115 26.0549 -0.141959
214.741 20.514 -0.251786
263.299 51.1559 -0.374746
231.177 11.4824 -0.495828
324.101 63.351 0.48876
200.758 14.1883 -0.281758
294.843 40.1374 0.358289
22.6928 2.75685 -0.131467
[...]
POINT_DATA 7062
TENSORS Strain_matrix float
-0.0361432 -0.149952 0.318329 
-0.0515753 0.059698 0.201711 
0.00288081 -0.04231 0.498459 

-0.0494102 0.0111811 1.06461 
0.0233374 0.0401173 0.941773 
0.00133839 0.0120814 0.248876 

0.00336304 -0.052363 -0.000424696 
0.027685 -0.028102 0.0499368 
-0.00832136 -0.0115657 0.00646251 

-0.37139 0.119429 -0.117713 
-0.487199 0.371903 -0.702735 
-0.0121603 -0.06875 0.337261 

-0.0110526 0.000332833 0.00581656 
-0.00446301 0.000204119 -0.00423098 
-0.000600066 -0.00115012 0.0219468 

-0.0852984 -0.0654638 0.534221 
-0.00542753 0.0921775 -0.837981 
0.00598823 0.0181473 0.156364 

-0.0821231 -0.0138472 -0.11636 
0.0766741 0.0521817 -0.0155903 
0.0241834 0.0144379 0.492899 

-0.0150467 0.00667931 0.00628266 
-0.00472009 0.00377655 0.0199089 
-0.00196187 0.000867121 0.0328846 

-0.0346573 0.0335491 -0.0782706 
-0.0741519 0.0770697 -0.00457534 
-0.0159069 0.0521177 0.33396 

-0.00896041 -0.0601499 0.0263908 
-0.00102701 -0.00476878 -0.106897 
-0.00210315 0.00914144 0.0459546 

-0.422356 -0.27983 0.937964 
0.360432 0.214092 -0.586877 
0.0190591 0.0274599 0.527874 

-0.0364735 -0.0453327 -0.303353 
0.0438283 0.0395715 -0.0836694 
0.0189959 -0.00946236 0.371018 

-0.0465018 -0.052492 -1.55876 
-0.0108942 0.289398 9.42208 
0.00211759 0.0307885 1.41953 

-0.0690158 -0.153199 -0.633287 
0.0191892 0.0583502 0.888371 
0.0115647 0.0208087 0.203317 

-0.0105565 0.0317615 0.209495 
-0.00739343 0.0234064 -0.447474 
0.00847135 -0.0361974 0.529331 

-0.0133961 -0.0318159 0.00459942 
0.0197685 0.00571601 -0.070497 
-0.00488506 -0.00153627 0.113596 

-0.036465 0.0462472 -0.033476 
-0.0339563 0.00703002 0.131637 
0.00583006 0.0311673 0.617205 

-0.172207 -0.318429 -0.743167 
0.150936 0.0562107 1.04341 
-0.00435086 -0.00173564 0.605682 

-0.395936 -0.350092 -0.0216817 
0.418395 0.395897 -0.330925 
-0.0270752 -0.0212577 0.266086 

-0.00158972 -0.0774836 0.0602541 
0.0544499 -0.00943838 0.0444123 
0.0127819 -0.0158441 0.205564 

0.0841377 -0.00810621 0.359536 
-0.422763 -0.0524456 -0.770003 
-0.0181082 0.0375329 0.324487 

-0.0185871 -0.0562886 -0.373146 
0.0283814 0.0416376 0.585229 
0.000706297 -0.000374908 -0.0187963 

-0.0392027 0.019314 -0.120603 
0.0230411 0.0399957 -0.119947 
0.0596975 -0.0351757 0.154391 

-0.391026 -0.0180047 2.45574 
0.0555739 0.188681 -0.73119 
0.00016418 0.0271733 0.709918 

-0.140843 -0.296574 0.0214338 
0.30205 0.282974 0.26913 
0.0132477 -0.0236868 0.877134 

-0.0755857 -0.0441674 0.379106 
-0.0308454 0.148677 0.151748 
-0.0198923 0.010387 0.145538 

-0.015915 0.00358519 0.0400518 
0.058418 0.0134654 -0.21287 
-0.0113354 0.0147599 0.018516 

-0.0137924 0.00974114 -0.000214252 
-0.00636777 0.00384215 -0.000454626 
-0.000210065 0.00012847 0.00979265 

-0.744539 0.0710866 1.02934 
-0.00237947 0.533752 -1.0937 
0.0421365 0.0834612 0.584135 

0.0112944 -0.225441 -0.0849826 
0.19659 0.0425299 -0.0334783 
-0.00245663 -0.000295824 -0.0194826 

0.0235056 0.162778 0.677466 
-0.420144 0.103685 0.171342 
-0.057097 -0.0168303 0.434779 

-0.116351 -0.0480113 -0.00501408 
0.0735939 0.0238647 0.00599406 
0.019675 0.0821778 0.455605 

-0.227477 -0.47521 0.100034 
0.269348 0.381403 0.0942323 
0.131557 -0.0658214 0.408651 

-0.571964 -1.39112 -1.92573 
0.429208 0.730955 -0.0518691 
-0.010207 -0.00318154 1.21001 

0.148827 0.0148306 0.619353 
0.271556 -0.00293394 1.07296 
0.0868257 0.00902881 0.136342 

-0.235584 0.24773 -0.343329 
-0.362429 0.111405 -0.237799 
-0.0291904 0.086221 0.157288 

-0.286243 0.0705441 -0.702153 
-0.130044 0.208704 1.51858 
0.0316631 0.0271654 0.450781 

-0.00699862 -0.062059 0.0405798 
0.0470557 0.00543067 -0.0816889 
0.000586067 -0.00136561 0.0108046 

-0.172664 -0.0170496 0.898217 
-0.134519 0.0031182 -0.0121755 
-0.0218326 -0.0394082 0.489939 

-0.691826 0.110456 0.0812537 
-0.117388 0.496069 -0.0541371 
0.0180447 -0.00153448 -0.0170046 

-0.0978358 0.355104 -0.330546 
-0.485106 0.280034 -1.05 
0.0713424 -0.0681066 0.601419 

0.00237241 -0.0513173 -1.17955 
0.0636646 0.00556125 3.61205 
0.0123644 0.00702869 0.690137 

-0.649447 -0.170236 2.0817 
-0.947364 0.455375 4.46464 
0.0326549 0.0257341 0.833222 

0.0079002 -0.00389703 0.0446134 
-0.0404853 0.010268 -0.0234626 
-0.00164773 -0.00683856 -0.00499288 

0.0122884 0.0166587 0.0421024 
-0.0236136 0.00999306 -0.128231 
-0.004769 -0.00101177 -0.0106954 

0.0124402 0.0588646 0.0130513 
-0.0958911 0.0179508 -0.117194 
0.00361175 -0.00723079 -0.0124129 

0.00989823 -0.0075897 0.104039 
-0.0622856 -0.015052 0.0296846 
0.00727672 -0.00585848 0.0377979 

-0.00971187 0.213064 0.706064 
-0.0868786 -0.00608654 -0.0641678 
0.0484257 0.0523463 0.736847 

-0.00508826 -0.0482958 -0.0710064 
-0.0114713 0.00325766 0.13669 
0.0177979 0.0309561 -0.129763 

-0.0723 -0.110589 -0.180053 
0.0318158 0.0638458 -0.185753 
0.0129586 0.00520095 0.660487 

-0.269912 -0.1701 0.318789 
0.261191 0.155435 5.73687 
0.000121592 0.00821001 -0.185332 

-0.0361231 -0.0964621 0.139878 
0.111388 0.03721 -0.340231 
0.00381171 -0.024253 0.278616 

-0.201954 -0.232371 -0.791686 
0.03578 0.152169 1.23368 
0.0255875 0.0213265 0.266687 

0.167736 -1.55942 -0.967454 
0.827467 1.40926 -2.17198 
-0.0338363 -0.0251118 0.573628 

-0.231124 -0.106121 1.97532 
0.0640365 0.055597 -19.4742 
-0.000260443 -0.0114494 -1.42434 

-0.926881 -0.648964 -1.08454 
-0.994677 0.0845498 -1.66636 
-0.00365422 0.069259 0.756804 

0.0148853 0.0486064 0.0598014 
-0.0107528 -0.00185681 -0.273042 
0.0014526 0.000726445 0.00509408 

-0.0289222 0.00854709 -0.0545325 
-0.01774 -0.037567 0.0565138 
-0.00258772 0.00225692 0.135296 

-0.0166137 0.0131397 0.00664857 
-0.00390825 0.00268469 0.00258883 
0.000433683 0.00178684 0.0252315 

-0.083231 -0.229391 2.04733 
0.0845382 0.0993056 1.92007 
-0.0069362 0.0130937 0.154165 

0.0334875 -0.0462263 -0.725277 
0.0763655 -0.0420667 0.992174 
0.0764911 0.0727113 0.15365 

0.0485943 0.0323978 -0.350879 
0.0068285 -0.0374627 0.120884 
-0.0141378 -0.00911474 -0.194174 

-0.273868 0.02648 3.82658 
0.0485266 0.101853 -7.14966 
-0.0176324 0.00232591 1.612 

-0.132855 -0.0304715 0.182996 
-0.124162 0.151428 0.288125 
-0.0156141 -0.0317658 0.234368 

-0.0165454 0.00125166 -0.0782785 
-0.0200177 -0.00546255 -0.443498 
-0.0157393 0.0449936 0.226799 

-0.212754 -0.287779 -1.50863 
0.136276 -0.415459 2.61759 
-0.00385531 0.0148766 -0.0646367 

0.0110077 -0.0426802 -0.00836833 
0.0476718 0.0113412 -0.0351505 
0.00336683 -0.10866 0.537085 

-0.124511 0.23057 0.596396 
-0.33668 0.162866 -1.53895 
0.0290293 -0.0277463 2.48496 

-0.034496 -0.0158067 -0.0632798 
0.00194215 -0.0203569 -0.0128026 
-0.00688959 0.0126625 0.456412 

0.0502898 -0.252066 -0.110397 
0.249226 0.0336502 -0.151783 
-0.040778 -0.00940964 0.475982 

-0.0134533 0.00650343 0.00258452 
-0.00824146 0.00329815 -0.0108974 
0.00171742 0.000905829 0.0392851 

0.0741808 -0.116377 0.496289 
0.0515706 -0.0963329 0.155312 
0.00239405 -0.00151622 0.012207 

-0.40826 0.315482 0.00790354 
-0.644842 0.51551 0.0115651 
-0.0589291 -0.116323 0.235936 

0.0591339 -1.09381 4.57779 
0.0802599 -0.244113 1.61435 
0.0002668 -0.00143575 0.030159 

-0.835623 -0.0254438 -0.388542 
-0.62147 0.587555 0.713129 
-0.0181266 0.023845 0.803131 

-0.0158028 0.00753295 -0.00903025 
0.000558881 0.0123975 -0.0220903 
0.00328833 -0.000207209 0.00702803 

-0.17213 -0.150648 0.199337 
0.319128 0.263452 -1.05756 
0.0185439 -0.06568 -0.112378 

-0.0208174 -0.016691 0.0133825 
0.00195214 -0.00630921 -0.0176206 
-0.00236516 0.000196945 0.0448254 

-0.0291264 0.0405089 -0.0106294 
-0.0944891 0.0102263 -0.050511 
0.00605136 0.0018755 0.0821979 

-0.00517522 -0.00413046 -0.0734728 
4.05775e-05 -0.00173844 -0.135384 
1.73921e-05 -0.000294265 0.035905 

-0.03486 -0.0201074 0.47003 
0.0167493 0.0178971 -0.487745 
-0.00164582 -0.00454947 0.115913 

-0.784041 0.0418405 1.12418 
-0.109109 0.519419 0.816335 
-0.0463369 0.0491022 0.0374302 

-0.289781 -0.0463581 -0.33876 
0.289257 0.144244 0.409661 
-0.00483879 -0.0069049 0.323145 

-0.00211565 0.00392827 0.0948276 
-0.0090025 -0.0188661 -0.085598 
-0.00505887 0.00773721 0.374765 

-0.0576314 -0.291782 6.01987 
0.283922 0.11836 3.16614 
-0.0332921 0.0153124 1.3986 

0.173738 0.0717637 -0.57387 
-0.190997 -0.149055 1.12872 
0.0492973 -0.00404162 0.380349 

0.0593617 -0.0872809 0.049248 
0.0462059 -0.0562611 -0.0856022 
0.00159073 -0.00140201 -0.0283689 

-0.107881 0.083047 0.265392 
-0.164563 0.13027 -0.138065 
0.0109322 0.0656371 0.344637 

0.00451817 -0.0749503 -0.0413488 
0.0749384 -0.00035879 0.0403473 
0.0234476 0.00839396 -0.0464757 

-0.00652332 -0.0104565 -0.00405057 
0.00702309 -0.00153068 -0.0108477 
0.000115169 0.000172968 0.0183703 

-0.0542051 0.134094 -1.24958 
-0.122273 0.033855 0.861396 
0.0325584 -0.0147156 0.914177 

-0.141589 -0.295685 -3.52038 
0.113295 0.161245 -6.93732 
-0.00208258 -0.000682349 0.756722 

-0.191395 0.126943 -0.54451 
0.157467 -0.00918353 -1.02045 
-0.0345064 0.0709758 0.183749 

-0.083371 -0.100999 -0.123324 
0.0827088 0.0816173 0.272048 
-0.0235208 0.00883254 0.535427 

-0.457216 0.363868 -0.712486 
-0.425596 0.40058 -1.20292 
0.0581665 -0.0357799 0.398217 

-0.027562 -0.00829042 -0.0140951 
0.0279619 0.0151748 0.0122544 
0.0133 -0.0562606 0.306311 

-0.520985 -0.416547 -0.0358099 
0.10268 0.58553 0.381542 
0.132791 0.0217295 0.830107 

-0.118634 -0.308896 1.03592 
0.365054 0.11056 0.449689 
0.0016958 -0.0306554 0.694697 

-0.10789 0.0684951 0.124548 
-0.144012 -0.0249151 0.0298936 
0.00854739 -0.0212486 0.902194 

-0.0148059 -0.0294074 0.031146 
0.0441782 -0.0241193 -0.00462058 
-0.00199985 0.000982937 0.0729753 

-0.00869424 -0.0769272 -0.00810913 
-0.0179994 0.000111835 0.0238459 
0.00175174 0.000769384 0.0454586 

-0.393633 -0.208522 1.0273 
-0.0798924 0.232616 -1.15859 
0.00365555 -0.0449721 0.635767 

-0.401932 -0.0209307 0.24149 
0.0289688 0.359639 0.0674337 
0.0222785 -0.0461286 0.440273 

-0.889327 -0.568918 -0.432218 
-0.615686 0.324002 1.48451 
0.0272704 0.0245054 1.76158 

-0.196401 0.390089 0.141186 
-0.279726 0.215869 -0.0596251 
-0.00614044 0.0788603 0.87833 

-0.147471 0.26397 0.705361 
-0.251367 0.168585 -0.000741405 
0.00200283 -0.110293 0.606035 

-0.0145127 -0.00159601 0.0624938 
0.0146731 0.0126027 0.120481 
0.000672331 -0.0020117 0.0379567 

-0.0211649 -0.0699183 -0.753225 
0.0168047 0.177637 2.81695 
-0.000186482 0.000855039 0.100311 

-0.0152903 0.0430852 -0.1194 
0.0188203 0.000377636 -0.0982488 
-0.0174692 -0.025319 0.200251 

-0.005856 -0.0137561 -0.0638755 
0.0104956 0.00229492 -0.267944 
0.000332382 -0.00060498 0.0232095 

0.0221722 -0.43607 2.69608 
0.410467 0.203249 5.59446 
-0.0169089 -0.0198797 -0.626163 

-0.0687205 -0.501378 14.7052 
0.052626 -0.0937302 14.7776 
0.00139392 -0.000394452 0.454566 

0.0150933 -0.152289 0.289775 
0.172454 0.0027847 -0.117874 
0.00412692 -0.00979177 0.371836 

-0.00198741 -0.00649345 -0.00562001 
0.00756066 -0.00197512 0.00768853 
-0.000307926 -0.000219837 0.00726162 

0.00206817 -0.013293 -0.290355 
0.00272608 0.0532822 0.289107 
0.0137909 0.00604281 0.376526 

-0.184351 -0.451873 -3.75731 
0.329812 0.143272 3.85661 
-0.0240486 0.00157808 0.579689 

-0.0111744 -0.0118278 -0.0793062 
0.0622437 -0.0309309 0.0484715 
0.000918957 -0.00476883 0.107929 

0.00387806 -0.608333 0.725021 
0.421071 0.472062 -1.86867 
-0.0134062 0.000652543 0.0248235 

-0.0321369 0.0766037 0.297016 
-0.00194098 0.0378877 0.452865 
0.0133346 -0.00712139 0.0777349 

-0.30799 -0.428291 -0.77191 
0.317544 0.202093 0.475662 
0.0424552 -0.00107038 0.563615 

-0.311945 0.101166 0.382495 
-0.154214 0.21443 0.453761 
0.0427815 -0.0321659 0.782634 

-0.283975 0.334527 1.02851 
-0.18702 0.359678 0.441727 
0.032702 -0.0115286 0.96842 

-0.0123532 0.0654995 -0.395406 
-0.0216701 -0.00827182 -0.419751 
0.0162828 0.0403156 1.04291 

-0.104549 -0.0748884 -0.678345 
0.172496 0.0234694 -0.056588 
0.0172988 -0.00129863 0.790733 

-0.0445559 -0.347644 5.1914 
0.18608 0.163101 -5.23591 
-0.0144762 -0.0634925 0.76071 

-0.0301629 -0.0448705 0.405029 
-0.0597423 0.0210679 -0.487475 
-0.000669438 -0.00370379 0.0156423 

-0.241964 0.412214 0.290715 
-0.378131 0.417897 0.426265 
-0.00371192 0.0408586 0.955192 

-0.18469 -0.134918 -4.09241 
0.316203 0.182382 1.32969 
-0.00184425 0.0451677 -0.63716 

0.0038358 -0.0871602 -1.42443 
0.122506 0.0270189 -1.20517 
0.00278343 0.00175101 0.0126684 

-0.210979 -0.358294 1.8285 
0.149468 0.0984312 1.03695 
-0.0345121 -0.0257051 1.04451 

0.00525916 -0.0551963 0.224735 
0.0387346 0.0409082 -0.386956 
-0.0260797 0.00599404 0.22256 

-0.230927 0.28348 -0.734337 
-0.28723 0.298938 -0.600479 
-0.043148 0.0849088 1.01345 

-0.652159 -0.62476 -0.564453 
0.0977564 0.581025 0.287158 
0.118257 -0.0958859 0.764577 

-0.0155549 0.0106629 -0.00105403 
-0.00535808 0.00457227 -0.0140538 
0.00042369 -0.000511018 0.00631902 

0.0117458 -0.084438 -0.0141866 
-0.0107894 -0.0224849 0.0338283 
-0.000325168 0.00389447 0.0336753 

-0.0184947 0.0547645 0.282732 
-0.0870079 0.0138985 -0.125038 
0.00117603 0.000611707 0.00598494 

0.0378039 0.0318402 -0.155436 
0.0635674 -0.0302321 0.438454 
-0.00190868 -0.00231533 -0.0150069 

-0.0228626 0.0481331 -0.124544 
-0.0284438 -0.00850973 -0.0443136 
0.0035736 -0.00585333 0.106928 

-0.53087 -0.265299 1.37662 
-0.73689 0.217792 -0.471651 
-0.0570408 0.0461173 0.429317 

-0.0678542 0.0558938 0.0488083 
-0.00364562 0.0302511 -0.862798 
0.00604451 0.00967459 0.267969 

-0.00447212 0.00586383 0.571938 
-0.0526367 -0.0201716 0.433583 
0.0222716 0.00900903 -0.0104621 

-0.00142104 0.000585022 0.000128676 
0.00372712 -0.000362429 -0.00454811 
0.00012522 -0.000175252 0.00618939 

-0.00750813 0.00705914 0.25347 
-0.0312605 -0.0068645 -0.0140502 
-0.0788571 0.0124894 0.226105 

-0.00179898 0.00168114 0.00873078 
-0.00351432 -0.000423136 -0.00047582 
-8.22438e-06 -0.000462277 0.00950886 

-0.0149211 0.00797643 0.188795 
-0.000161796 0.00635387 -0.845571 
0.000413993 -0.000708937 0.0936813 

-0.163479 0.0852935 0.323779 
-0.0217061 0.0694439 0.333193 
-0.0189543 -0.0377882 0.391937 

8.76248e-07 0.0102952 -0.00774978 
-0.00526735 -0.027846 0.0278274 
-0.00622387 0.00209572 0.0848411 

-0.00429508 -0.0069357 0.0137755 
-0.00702117 0.00113676 0.000302428 
-0.000208824 0.000199589 0.00278007 

-0.11764 -0.137396 0.199472 
0.207706 -0.0485871 -0.243966 
-0.0815158 0.0218469 0.550489 

-0.439052 -0.400007 2.02349 
0.391919 0.09899 -0.276943 
-0.039303 0.0463095 0.848823 

-0.013792 0.00855075 -0.0803911 
0.000341347 -0.0133412 0.0641316 
0.0241708 0.0372067 -0.172583 

0.00940041 -0.480384 -1.31311 
-0.165554 0.476465 0.587339 
0.0047784 0.0327475 1.13401 

-0.0426061 -0.00933853 0.0341972 
-0.00450947 -0.00275289 0.0475322 
-0.0146889 0.0673969 0.251257 

-0.0209571 -0.00632397 0.0402089 
0.00891786 -0.0118132 0.0682444 
-0.0116249 -0.00312467 0.10369 

-0.0444888 0.00694877 0.0452854 
-0.0046063 0.00936876 -0.409771 
-0.00107191 0.0112934 -0.238815 

-0.0183891 -0.00531394 0.0256955 
-0.00806595 0.00409534 0.0268399 
0.00055814 0.0010734 0.0193727 

0.0879094 0.00206969 0.178975 
-0.0392261 -0.0509123 0.253042 
-0.00434831 0.00214874 -0.0204816 

0.063663 0.0920876 0.176249 
-0.0818471 -0.0410217 -0.219497 
0.0165614 0.0199503 0.535928 

0.0784094 0.243671 -0.151575 
-0.339935 0.0516775 0.0882732 
0.0014093 0.00432914 -0.0891318 

0.403087 -4.3529 -1.54296 
0.0864315 1.96627 0.198002 
-0.0597778 -0.0949586 0.843378 

-1.06353 -2.05535 -1.71535 
0.467938 1.10677 -0.560125 
-0.00991386 -0.000950122 0.645089 

-0.0178375 0.0134946 0.225472 
-0.000837053 0.00342813 0.0679459 
-0.00129317 0.000468712 0.0605071 

-0.201932 -0.0789715 -0.436867 
0.212221 0.144197 -0.313864 
-0.0416198 -0.0860329 1.00617 

0.0305377 0.101547 0.218181 
-0.33632 0.0470915 -0.0247129 
-0.0106856 -0.0092219 -0.0855231 

-0.0130769 -0.0181926 -0.00239134 
0.0288739 -0.0985731 0.0427711 
0.0133236 -0.00108809 0.199399 

0.0270301 0.00826212 -0.0130914 
-0.0153304 0.0111178 0.0968184 
-0.00170501 0.00111793 -0.0131047 

-0.0136001 0.00505745 0.123524 
-0.0456142 0.00142445 0.107072 
0.0221798 0.0103122 0.229151 

-0.504571 0.0568123 0.470867 
-0.0501242 0.159007 -0.381069 
0.0367609 -0.00481427 0.772706 

-0.0174557 -0.0029491 0.174692 
0.0129757 0.0213136 -0.472539 
-0.00157279 0.00610009 -0.00293863 

-0.186328 0.100748 0.167681 
-0.147716 0.078562 -0.223936 
-0.00483356 -0.0807108 0.319875 

-0.19192 -0.50804 0.125046 
0.304225 0.335062 -0.0579086 
-0.0271287 -0.0380179 0.758838 

-0.399008 -0.598184 1.57188 
0.468549 0.492063 -1.14311 
-0.0620387 0.00976786 0.363719 

-0.00172284 -0.00120475 0.000614762 
0.00317784 -0.000725394 -0.0050036 
0.000453677 0.000134419 0.00638154 

-0.00588968 0.0162068 -0.0307613 
-0.00968943 0.0090388 0.0487962 
-9.83804e-05 0.00251645 0.121591 

-0.00355712 0.0119721 -0.155128 
0.00224254 0.0151448 -0.150914 
-0.000866808 -0.000984955 -0.000663113 

-0.125003 0.128305 1.35647 
-0.111925 0.0512788 -1.39359 
0.0062087 0.00874751 0.468628 

-0.00636462 -0.0371748 0.0224068 
0.0301413 0.00274966 -0.005376 
0.000659044 -0.000195964 0.00833117 

0.0529117 -0.327703 0.0936729 
0.358668 0.0692204 0.0931395 
-0.0121503 -0.0368611 -0.0108195 

-0.00153074 -0.0333983 -1.32712 
0.213452 -0.10019 0.935695 
-0.0382701 -0.000771847 1.31945 

-0.0624708 0.0380444 0.254503 
-0.108806 0.0629552 -0.230341 
0.0185023 -0.08733 0.41762 

-0.479601 0.116306 0.0158639 
-0.237334 0.23674 -0.166882 
0.0173021 -0.0753998 0.648201 

-0.0106976 0.00664089 -0.0109101 
-0.00514965 0.00425724 -0.0119807 
0.00084387 0.000146672 0.0206389 

-0.0851548 0.114319 0.0832101 
-0.139699 0.100921 -0.0575421 
-0.00701215 0.00974302 0.265495 

-0.288495 -0.352204 -0.30974 
0.147441 0.100783 -0.105254 
0.0174961 -0.0057992 0.490305 

-0.0428521 0.0523625 0.28199 
-0.0464915 0.00400115 0.0721484 
0.000941233 0.00103291 -0.0373966 

-0.227454 -0.300992 -0.314617 
0.0151506 0.199822 -0.134945 
-0.0102826 -0.000140242 0.0341129 

-0.024851 -0.39626 -0.0216463 
0.305117 0.0755039 2.86273 
0.0103455 -0.00376227 0.408645 

-0.0151306 -0.0147429 -0.115036 
-0.00698427 0.0191439 -0.945484 
0.00266037 -0.00186522 0.01698 

-0.0928752 0.122713 0.0734309 
-0.208152 0.0516198 0.189404 
-0.0341919 -0.0135967 0.976979 

-0.0379318 -0.0241337 0.0211461 
-0.00612152 0.0234517 -0.155692 
0.0346714 -0.0770669 0.441943 

-0.174945 0.16814 5.85024 
-0.0541913 0.0737611 -12.2357 
-0.021709 -0.00408612 1.25233 

-0.226043 -0.00862255 -0.239535 
0.0433074 0.17969 -0.0507261 
0.011594 -0.0459288 0.608282 

0.117962 0.184787 0.696201 
-0.05968 -0.0858905 0.165274 
0.0163057 0.0255437 0.514432 

-0.0125892 0.0116613 -0.0205266 
0.0219461 -0.0215025 -0.0163668 
0.0217545 -0.0211048 0.0726537 

-0.131888 0.215089 -0.0632363 
-0.236483 0.115035 -0.0730377 
-0.00138312 -0.0352447 0.961405 

-0.204569 0.0142753 -0.851296 
-0.0403858 0.177711 2.01799 
0.00645584 0.00773002 0.115602 

-0.33318 -0.0953168 0.606987 
0.100252 0.338697 0.544547 
-0.0271623 -0.0423987 0.599268 

-0.210675 -0.128059 -1.11498 
0.213774 0.121195 0.974151 
0.0132439 0.00961422 0.294553 

-0.016872 -0.499676 18.8039 
-0.375409 0.138555 -5.70454 
0.0361318 0.0346268 -0.266368 

-0.188434 -0.00138662 -10.8902 
0.00415775 -0.0380055 16.1168 
0.00398321 -0.00296655 1.2955 

-0.0321078 0.0436574 -0.0313129 
-0.0375938 0.00456425 0.225703 
0.0264614 0.00237784 -0.445327 

-0.0173523 -0.010237 0.0182767 
0.00739065 0.00622022 -0.0058729 
0.00475664 0.0174963 0.0587095 

-0.102421 -0.0928849 -0.185582 
0.0675876 -0.00750383 -0.346188 
-0.0210687 0.021908 0.228815 

0.00151114 0.00884186 0.0712009 
0.00781044 -0.00765026 -0.0254995 
-0.00333172 0.000218296 0.00644949 

0.0454033 -0.0200598 -1.81424 
0.0464926 -0.034747 1.90669 
0.0552496 0.00594719 0.699871 

-0.764393 -0.173813 9.0242 
-0.011945 0.80271 0.708517 
-0.000597205 0.0229247 0.550137 

-0.0584144 0.0483932 -0.334624 
-0.0321311 0.0228741 0.412359 
0.00456649 -0.022241 0.203549 

-0.0140509 0.011565 -0.00526424 
-0.00605479 0.00285071 -0.00647446 
0.000889585 -0.000195489 0.021804 

-0.0286914 -0.038177 -0.106558 
-0.00541471 0.0195218 -0.074376 