# vtk DataFile Version 3.0
Output file generated by Yade's KinematicLocalisationAnalyser
ASCII
DATASET UNSTRUCTURED_GRID

POINTS 6832 float
298.96 43.9255 0.206014
226.473 40.3359 0.283056
100.139 36.3495 0.245613
188.706 20.944 -0.219615
207.277 49.0983 -0.494865
287.458 26.1591 -0.372352
100.893 14.6606 0.326075
332.918 27.0671 0.423805
86.6802 35.9266 -0.422381
139.356 43.472 -0.126665
117.042 47.895 0.132872
166.094 19.922 -0.476663
320.457 17.3257 -0.332247
331.777 38.7473 -0.138144
47.9412 13.0081 -0.283217
171.171 18.1378 0.417738
319.397 46.206 0.440741
303.097 26.467 -0.457415
191.463 15.5438 0.579898
261.711 18.7981 -0.568083
247.357 8.33339 -0.227876
145.617 35.1257 -0.474404
263.43 41.352 0.127426
49.3553 6.38438 -0.161086
107.628 9.89958 -0.285328
330.954 24.238 -0.369184
332.464 64.8172 -0.638865
335.899 55.2551 -0.551971
289.86 10.234 0.575817
334.139 70.6902 -0.501227
181.078 35.9268 0.381124
214.336 3.29833 -0.339382
122.159 30.1508 0.124176
0.898039 32.2489 -0.407037
135.324 30.9743 0.127199
4.76391 14.1031 -0.362569
322.548 5.04917 -0.169856
180.088 4.01829 0.675573
150.05 6.34807 -0.301198
135.595 8.08116 -0.210745
233.205 19.618 -0.389207
22.694 40.6447 0.185707
336.004 47.0417 0.600035
308.413 55.4585 -0.189467
127.787 28.556 0.368144
222.792 20.8848 -0.0966328
19.888 10.5343 0.247727
256.505 26.0198 -0.242832
201.17 50.9954 0.0706735
186.04 4.35989 0.193296
225.489 19.5039 -0.560616
274.066 27.4535 -0.258187
270.859 12.1487 0.420252
297.074 31.427 0.640748
65.9548 37.0892 -0.211355
310.866 1.85446 0.496917
196.426 40.2276 0.395135
108.974 37.4143 0.502452
283.558 45.6475 -0.56058
111.589 30.2367 0.164154
267.378 12.3549 -0.438802
29.753 31.1865 0.377687
190.465 14.5273 -0.261527
258.876 44.5696 -0.232489
303.009 0.815686 0.531045
319.075 4.6895 0.405802
92.6132 2.97784 -0.157649
50.0465 38.2007 0.38302
209.333 44.8626 -0.183461
257.838 62.3508 -0.336008
149.388 21.4689 -0.23277
173.687 28.6994 0.368447
99.4203 19.9281 0.221082
329.325 24.1727 0.405489
44.3317 13.5061 0.346677
197.508 22.7735 -0.142076
242.417 9.5454 -0.148516
210.725 11.2489 0.332404
343.38 40.4935 0.298459
330.855 20.9419 0.433049
319.55 67.7392 0.19334
320.851 59.1921 -0.332766
343.052 86.8778 0.124213
236.438 34.9049 0.453032
191.505 47.3142 -0.101917
247.87 52.7329 0.436317
111.924 38.7611 0.417606
286.346 53.0444 -0.268392
328.909 27.8397 -0.166933
126.054 2.56049 -0.39453
343.141 77.3303 -0.18797
325.549 33.9133 -0.359291
284.294 64.5503 -0.343663
294.843 41.33 -0.116634
173.177 5.98329 0.147657
35.5478 33.9153 -0.301466
322.728 0.96765 -0.189103
63.5508 7.36964 -0.382001
2.19958 9.95537 0.360806
152.673 35.4114 0.438949
338.57 85.1115 -0.331351
307.975 76.2328 -0.163776
209.25 25.3697 -0.39059
80.2835 30.4575 -0.193929
9.55985 38.9253 0.174929
242.085 47.6042 -0.343382
3.39321 13.5064 0.388521
99.5585 45.2925 -0.129539
318.868 62.6611 0.288065
296.338 32.9308 0.53892
293.114 17.2405 -0.525972
271.155 8.95785 0.602212
67.2267 26.4975 -0.334261
201.155 11.372 -0.348322
204.377 39.6406 0.182936
338.138 29.4379 0.167377
77.7671 31.6372 -0.17445
43.5785 27.0541 0.258091
97.6254 14.4115 -0.243347
192.616 24.9531 -0.448658
280.794 55.3593 0.480675
324.688 83.1537 0.076303
242.681 11.4613 0.302942
266.453 6.92819 0.181159
310.715 32.9174 0.271514
314.255 22.9687 -0.466417
161.044 13.3858 0.402498
224.663 5.19324 -0.423351
106.268 26.4806 -0.476835
107.132 22.9514 0.389784
193.555 32.4155 -0.36793
288.167 53.613 0.123474
139.063 41.4487 0.276822
237.706 28.3517 0.475811
312.449 48.6236 -0.178304
149.936 28.2163 0.188711
102.286 24.4674 -0.0967911
181.103 12.192 -0.283799
292.551 11.174 0.459086
196.071 24.0501 -0.670165
109.892 33.6309 0.153056
97.7281 30.2516 -0.41584
109.604 45.6158 -0.447977
287.772 5.50697 -0.436172
203.26 30.1473 -0.173737
270.078 10.3778 -0.184834
146.558 19.8726 0.519652
148.342 39.4279 0.448918
88.0241 36.0526 0.51807
155.162 38.2451 -0.431813
213.243 27.7399 -0.533123
229.523 33.168 -0.430121
201.481 25.3098 -0.481177
79.8848 24.6881 0.371584
303.398 54.8686 -0.283241
52.5847 9.55147 0.383347
211.399 14.9614 0.705328
47.3269 6.09996 -0.249732
154.092 34.3965 0.301979
210.999 7.34832 0.617789
15.9087 27.4685 0.287264
25.2099 9.47665 -0.4416
156.957 48.7488 0.201129
84.7895 1.13677 -0.107664
191.542 35.1572 0.211435
50.1571 26.8523 0.4203
309.699 13.7406 -0.639057
217.051 38.9479 0.375513
208.058 39.9436 0.337724
324.816 43.1014 -0.256682
291.203 27.6885 0.17402
286.227 34.0711 0.338094
313.412 76.7239 0.2504
330.801 67.941 0.236916
198.258 43.6466 -0.238941
336.402 7.75999 0.655918
214.897 17.2774 -0.543469
212.675 36.381 0.253973
45.2038 2.63667 0.347973
244.818 39.6639 -0.120447
152.531 10.8273 -0.36476
337.433 55.3952 0.259652
33.7442 45.7948 -0.23525
224.232 52.6038 -0.153122
76.8967 36.9851 0.349501
123.768 40.862 -0.3019
161.966 32.8578 0.45996
151.978 28.0891 -0.154823
165.987 8.52374 0.127302
78.4155 11.087 -0.56694
58.429 9.62556 0.570745
245.207 43.2353 -0.35339
66.675 18.3534 -0.150618
205.551 52.8344 0.101571
4.00664 31.0083 0.27697
93.9623 32.3769 -0.296227
175.019 27.4054 0.294038
262.767 7.36558 0.34348
311.151 29.7903 0.427706
213.321 51.3506 -0.402678
60.5768 47.3475 -0.424182
310.046 19.199 -0.566561
242.844 29.2965 0.354082
259.612 31.3147 -0.271623
53.3337 16.3627 0.139604
67.2336 44.0583 0.285064
298.954 7.45604 0.515128
61.2236 37.683 -0.222152
120.013 22.9376 -0.51135
343.644 18.41 -0.661397
235.201 12.6031 0.4682
88.5478 33.5903 0.465228
271.678 21.6193 0.18185
151.202 4.64158 -0.197836
191.259 0.851276 0.498254
95.0147 28.6042 0.202187
296.367 52.7756 -0.12857
106.254 2.85544 0.353352
69.9346 22.4795 -0.0929089
336.248 51.5877 -0.268334
68.2876 4.82708 -0.243626
242.002 22.6377 -0.332149
285.708 39.0604 -0.45262
320.711 54.4048 -0.340902
266.362 65.1023 0.128701
272.127 27.2388 0.117891
60.7304 39.6149 0.288837
297.954 37.3352 0.421547
304.033 19.6072 0.340568
305.183 60.3256 0.3809
89.0085 6.31188 -0.518675
294.029 4.46871 -0.586515
318.725 44.3496 0.737619
300.973 40.7673 0.348979
327.203 67.6301 0.114755
300.12 8.75805 -0.285781
136.198 27.5659 0.43727
254.327 9.76338 -0.131981
98.3133 16.4524 -0.0877743
310.6 23.483 0.478731
125.165 19.4083 -0.253239
275.969 23.344 0.350371
51.9864 19.0342 -0.381347
296.567 12.9365 0.297564
114.826 14.1163 -0.487839
196.36 16.805 -0.116723
237.428 36.2837 -0.234013
240.875 45.3631 0.374931
117.513 10.1836 -0.178114
302.383 50.4103 0.255036
294.62 56.9407 0.0755788
57.7228 41.659 0.229471
28.5458 25.7234 -0.275482
3.27874 39.5863 0.103417
309.464 77.5135 0.129317
34.3007 32.975 0.489116
219.816 23.8629 0.378261
298.917 62.6727 -0.5439
76.1404 26.5773 -0.105368
161.178 16.3957 -0.566458
276.679 15.1061 -0.597265
145.948 18.0356 0.1136
203.396 4.22818 0.341983
328.292 78.3044 0.249003
162.076 25.2057 -0.391496
30.3475 25.4756 0.270847
287.743 9.95797 0.526268
81.315 14.3247 0.631144
229.023 11.9208 -0.142559
281.339 16.7432 -0.56504
341.819 66.2333 -0.171956
210.795 21.9531 0.404429
135.125 33.2805 0.136721
156.455 37.0879 -0.0980393
315.553 15.444 -0.0856302
90.2937 19.9977 0.361487
160.372 11.6142 -0.172455
314.921 66.0261 -0.258443
288.706 49.5483 -0.284898
243.908 46.8175 0.144217
50.5614 2.71303 0.344788
291.096 57.6247 -0.384322
106.659 6.03522 0.201296
168.33 18.3014 0.588126
38.7483 4.45261 0.372679
265.859 50.0084 0.334519
225.405 10.7732 0.281198
255.983 47.4112 -0.244809
65.2518 19.6164 -0.399353
27.3565 36.4603 0.42422
149.821 13.6593 0.369442
33.627 2.60128 0.385299
44.2341 7.43345 0.373372
179.332 16.9259 -0.299642
18.2645 2.68009 -0.310289
215.644 0.767435 -0.567312
142.035 5.20021 -0.485427
141.994 26.1047 0.425851
151.305 32.0066 -0.560926
62.0513 40.9027 0.425053
213.287 29.3303 0.386938
75.4713 7.17391 -0.267614
236.164 46.3566 0.427011
211.004 26.4498 -0.11002
165.306 23.4078 0.224405
144.082 35.4308 -0.407805
131.078 6.95701 0.497916
337.089 68.485 0.278808
19.3956 16.3283 0.440456
242.265 46.135 0.481974
68.9161 26.349 -0.270614
50.7048 4.78925 0.307361
178.759 35.7991 0.360303
233.628 38.0102 -0.407929
313.529 29.9937 0.29266
327.573 83.5676 0.110882
286.934 17.3167 0.572566
5.85204 7.26467 0.398116
273.162 32.2734 -0.348025
341.915 39.6485 -0.452992
343.496 10.1942 -0.402731
236.192 11.1823 -0.362861
148.644 40.8321 -0.391535
219.576 51.6102 -0.446051
261.596 37.1825 0.577565
327.268 80.026 -0.171828
134.643 27.6963 -0.300748
89.8555 6.9109 0.616218
78.5311 2.30251 -0.36037
61.908 33.6931 0.438051
327.549 65.6916 -0.335876
296.98 4.01268 0.530102
146.936 39.8221 0.448465
23.1131 36.6705 0.307915
269.947 26.9128 0.145494
21.0134 33.47 0.355796
166.815 24.5071 -0.311281
271.841 51.3504 0.372285
251.099 21.2028 -0.433911
216.768 50.9955 -0.218865
11.7361 29.8942 -0.241999
17.5431 13.7176 0.427335
81.4124 2.51529 -0.3435
325.565 52.2677 -0.249433
55.2194 20.9731 -0.159235
342.09 45.4904 0.516955
7.73944 18.5685 0.441828
103.686 13.2734 -0.380544
170.135 43.961 0.0894611
76.5062 45.8997 -0.44124
183.863 18.7334 0.240051
127.92 21.5149 0.232494
253.856 61.3495 -0.352872
338.931 89.2949 -0.30409
330.502 57.7867 -0.144679
18.2702 44.0369 -0.292291
69.9734 11.6981 -0.0807653
197.965 9.35314 -0.521459
126.056 10.7908 0.428923
195.643 36.9253 0.290257
122.449 42.3072 0.24635
240.719 1.88294 0.378824
239.791 24.8468 -0.603895
199.311 2.57748 0.326554
141.281 20.5105 -0.444852
198.18 41.8477 -0.459464
276.157 25.3557 -0.178579
198.337 24.7821 -0.388711
324.494 75.514 -0.251063
85.1211 46.236 -0.427491
148.109 42.7318 -0.188146
71.0149 8.01333 -0.0907621
303.645 29.7174 0.174561
12.5739 18.257 -0.139352
118.382 7.11455 0.39677
194.073 2.7815 0.378642
323.99 14.2564 -0.233917
336.011 87.2031 0.445615
140.957 17.3202 -0.503301
243.828 36.4349 0.496707
268.616 4.7741 -0.51271
274.135 43.2934 0.351734
101.644 4.53862 -0.262915
132.687 6.52976 0.259573
226.089 19.2612 0.664027
123.21 9.74232 -0.203176
199.93 25.3826 0.378597
249.116 4.77088 -0.532186
279.79 49.7069 0.145604
219.252 3.4717 0.24936
144.534 46.4337 0.356567
[...]
POINT_DATA 6832
TENSORS Strain_matrix float
-0.308804 -0.228226 -0.0613275 
-0.175858 0.149367 -0.190511 
0.000840563 0.00426313 0.0474914 

-0.0332182 0.0953366 -0.137169 
-0.109731 0.0494435 -0.0912293 
-0.0231978 0.111667 0.228801 

-0.0640683 -0.0375261 0.0478828 
0.0698623 0.0263812 0.0525949 
0.0611287 0.0592017 0.549271 

-0.0686113 0.00381787 0.166729 
-0.0309659 0.00969718 -0.123523 
0.0415954 -0.0209612 0.332015 

-0.012448 0.0281356 -1.91549 
-0.0746813 0.0431247 0.916578 
0.0185427 0.0132708 -0.109862 

-0.145221 -0.47331 -0.180148 
-0.089911 0.186011 -1.44719 
0.0130459 -0.00318181 -0.0363468 

-0.0376256 0.0109428 0.0904978 
0.0447326 -0.0719786 0.288952 
0.00636964 0.0138678 0.350145 

-1.30096 1.22625 1.55533 
-1.78256 1.64592 0.581529 
0.0269975 0.0428247 0.0508112 

-0.0195481 0.000379175 0.0772993 
0.00889451 0.00266868 0.150357 
0.00185733 -0.000472898 0.0961208 

-0.101945 0.063379 -0.157906 
-0.00602373 0.0754734 -0.0905776 
-0.00318639 0.00729254 0.0410407 

-0.029653 -0.808535 -0.739124 
0.033464 0.172729 0.27664 
-0.00813083 0.0377529 0.250367 

-0.0974869 -0.0202155 0.250588 
0.0772246 0.0149705 -0.423368 
0.056591 -0.0234003 -0.180752 

-0.124109 -0.25355 -0.370962 
0.00398434 0.31596 0.159912 
0.093669 -0.0326938 -0.170764 

-0.189772 -0.436559 0.9917 
0.29192 0.211349 -0.111844 
-0.0190448 0.126879 0.459937 

-0.0132404 0.037636 -0.0829957 
-0.0145127 0.0100835 -0.164977 
-0.0371994 0.0612769 0.338368 

-0.0525936 -0.0109141 0.314112 
0.0719879 0.0132075 -0.513392 
0.00392345 0.0482412 0.256486 

-0.177136 -0.438703 -0.721245 
0.237945 0.28431 0.594878 
-0.00450895 -0.0325906 0.525053 

0.0788167 -0.2971 -0.190839 
0.363212 0.0377966 0.336229 
-0.000850699 -0.00666229 0.215405 

-0.102598 0.0127217 0.0373001 
0.0475157 0.0995759 -0.0638819 
-0.0180213 -0.00139291 0.178723 

-0.0348282 0.0288645 -0.542354 
-0.0374313 -0.0252026 -0.306404 
-0.000879188 0.00516015 0.102291 

-0.0386464 0.00432492 0.0457733 
-0.0128285 0.0296305 0.010795 
0.00693525 0.00452471 0.00809529 

-0.0356275 -0.0113638 0.290746 
0.034189 0.0160201 -0.544118 
0.00179064 -0.000438095 0.122592 

0.00407775 0.0937442 0.235657 
-0.0894519 -0.0607452 -0.0801185 
0.0722906 -0.0047989 0.386731 

-0.107445 -0.0932349 -0.291138 
0.0305841 0.0584197 0.115255 
0.0496128 0.0207811 0.149792 

-0.152516 0.0781297 -0.110711 
-0.0655217 0.0361352 -0.111427 
0.0281072 0.0493269 0.324448 

-1.53774 1.11983 -0.484121 
-1.4438 1.59237 -0.509262 
0.057875 0.0863655 -0.0996208 

0.00565997 -0.229889 -1.91878 
0.236979 0.0532389 2.90558 
-0.00109079 0.000359013 0.0211496 

-0.10359 -0.249085 1.14036 
-0.055901 0.00546131 -0.0708644 
-0.0089835 0.0119208 -0.0571575 

-0.0281584 -0.0167471 0.044938 
-0.00977453 -0.0413817 -0.245431 
0.00188707 0.000754197 0.106101 

0.0602129 -0.0980881 -0.222181 
0.227425 -0.00284862 0.277098 
-0.0154322 0.0143837 -0.0421275 

-0.273162 -0.190847 0.490558 
-0.0925207 0.11644 0.244489 
-0.0480796 -0.0316484 0.573804 

-0.222979 -0.00445255 -0.127791 
-0.193751 0.105503 -0.719877 
-0.0261717 -0.00437449 0.347897 

-0.0327854 0.0414537 0.0471887 
-0.0972781 0.00349792 0.00485121 
0.00204956 0.00309805 0.0468748 

-0.00365237 -0.000865359 -0.00263945 
-0.00658005 -0.00167255 -0.0282405 
0.00337591 -0.000863125 0.0444747 

-0.0143657 0.00898782 -0.000530215 
-0.0653185 0.00433697 0.0562745 
0.00942643 0.0128658 0.0611556 

-0.0297123 0.0130924 -0.0132005 
-0.00321374 0.00645161 0.0148652 
-0.000796849 -0.00236211 0.0277915 

-0.198585 -0.198671 -1.03851 
0.200581 -0.0428556 -0.167959 
0.0216239 0.0190109 0.206682 

-0.0773116 0.0580596 -13.6547 
0.01248 0.0549515 3.60746 
0.00116261 -0.00244674 -0.0348253 

-0.038999 0.0556739 -0.0438659 
-0.0369995 0.0201949 -0.319177 
-0.00575422 -0.0015453 0.0871393 

-0.0584707 -0.0101311 -0.0748359 
0.0109771 0.0145963 0.0537009 
0.00343879 0.0183019 0.206487 

-0.010569 0.163697 0.147195 
-0.260962 -0.0544852 0.0191197 
-0.00567549 0.00823198 0.177421 

-0.0305452 -0.0354772 -0.0178429 
0.0375955 0.0100113 -0.00098812 
-0.000790767 0.00201086 0.051292 

0.0145252 -0.243147 -0.382982 
0.0888371 0.0580953 -4.66764 
0.00946231 0.00279956 -0.0483391 

0.0108417 -0.322082 0.068395 
0.246926 0.0587003 -0.09287 
0.0372192 -0.0594482 0.288742 

-0.077232 0.0105207 0.0497667 
0.00199715 0.0629463 0.057169 
0.0114978 0.00591856 0.105625 

-0.116351 0.0424504 -0.427471 
0.128112 0.0634317 -0.37003 
-0.00368859 -0.0445639 0.06315 

-0.00515361 0.00557563 0.0172694 
-0.0111081 0.0159738 -0.00732011 
0.0258203 -0.021839 0.092837 

0.0795919 0.253548 -0.00611834 
-0.16608 0.0248296 0.147663 
-0.00390278 0.013719 -0.062219 

-0.000993396 -0.183197 -0.0329857 
0.157531 0.00519529 -0.0501696 
0.0555776 -0.0235795 0.290855 

-0.1511 -0.0997697 -0.125699 
0.0858813 0.129057 0.0420795 
-0.00970349 -0.0131785 0.31478 

-0.167865 0.0304772 -1.7838 
-0.0776152 0.0641393 3.8751 
-0.00382963 0.000417095 0.446511 

-0.00643289 0.27394 -0.0935415 
-0.0223178 0.018942 0.374946 
-0.0279209 0.0007487 -0.0225887 

-0.0108681 0.0263882 -0.0124164 
-0.0340194 -0.0255793 -0.082265 
0.000926388 0.00652279 0.0492921 

-0.235241 -0.084019 0.785198 
0.382023 0.111415 0.825958 
0.011356 0.000481627 0.477697 

-0.0203168 0.0210095 -0.0273379 
-0.0026967 -0.00528834 -0.0220926 
0.000568388 -0.000314296 0.0331274 

-0.27887 -0.0756127 0.794366 
-0.169122 0.146715 -0.0416265 
-0.0102111 -0.0654609 0.281329 

-0.0216179 -0.0753555 -0.179215 
0.0688649 -0.00743065 -0.633546 
-0.0193057 -0.00193285 0.104144 

-0.0524358 0.0278145 1.20724 
0.0247717 0.028815 -3.61601 
-0.000935651 -0.016019 -0.173115 

-0.438006 -0.527129 2.56696 
0.00969427 0.289797 -7.12764 
-0.0100844 -0.0267436 -0.0386253 

-0.0602851 -0.0961772 0.352383 
0.0165618 0.0265099 -0.365547 
0.0192568 -0.00384439 -0.0236851 

-0.0218142 0.0126655 -0.0088417 
-0.00435364 -0.0205552 -0.013652 
0.00299329 0.00538803 0.0133013 

-0.0599764 0.0461016 -0.215342 
0.0120844 0.036196 0.663293 
0.000774979 -0.0557288 0.30187 

-0.12741 -0.00932919 0.0867348 
0.0010765 0.081785 -0.0775653 
-0.00678173 0.0877219 0.462545 

0.00285768 -0.359509 0.299464 
0.267414 -0.00435782 -0.483292 
-0.0251487 -0.0200828 0.972907 

-0.066527 1.03493 -0.707093 
0.00205773 0.0305972 0.427123 
0.0197059 0.0826648 0.355903 

-0.543415 -0.1923 -0.132742 
-0.140974 0.323619 1.47049 
0.0543761 0.0177545 0.107841 

-0.0485608 0.0175938 -0.18543 
-0.00493792 -0.00661274 0.0421633 
-0.0068133 -0.00429205 0.143962 

-0.015703 0.0219399 0.963975 
-0.0194133 0.0222253 1.51402 
0.0167112 -0.00263116 -0.142792 

-0.0215224 0.00786408 -0.0783575 
-0.0180645 0.0219091 -0.455587 
0.0238159 -0.0114133 -0.0393096 

0.234686 -0.677096 11.6701 
0.0227506 0.0298536 -1.91659 
-0.0325441 0.0529668 -3.1295 

0.00153754 0.018012 0.0389687 
0.0158027 0.00115862 0.0448589 
0.00470305 -0.00277364 -0.0103661 

-0.0217078 -0.0369618 0.0840496 
0.0712525 0.0489106 0.249551 
0.0444863 0.0676058 -0.0908389 

-0.0166117 0.0735411 -0.0604266 
-0.0420953 0.0411456 0.547913 
0.0572004 0.0375991 0.780094 

-0.93515 1.03912 -0.887358 
-0.751602 1.09867 -0.238553 
-0.0372925 -0.0634803 0.605244 

-0.0892803 -0.00842292 0.655685 
0.0025822 0.0574231 -0.4463 
0.0100946 -0.0259468 -0.000797158 

-0.399281 -0.383829 0.257784 
0.0016293 0.234821 -0.165459 
0.0927123 -0.0479238 0.478276 

-0.0545436 -0.0386989 -0.108629 
-0.0292839 0.0335904 0.0716091 
0.0326425 0.00805935 0.132456 

0.0320988 -0.175107 -0.722672 
0.202195 0.0367235 0.103392 
-0.00872766 -0.0318069 0.755368 

-0.111193 0.0182566 0.288274 
-0.0526525 -0.0753281 -0.654705 
0.328399 0.0644881 0.328691 

-1.33114 1.0177 4.91065 
-1.47753 1.07903 4.5504 
0.00349429 -0.0488652 0.613018 

0.0450715 -0.254572 0.0690233 
0.284547 0.0320404 -0.0639028 
-0.000175457 -0.0339195 0.0643412 

0.0455116 -0.242573 0.00686591 
0.26611 0.0239474 -0.0128621 
-0.000379167 -0.0018015 -0.00367235 

0.187353 0.0837312 -0.914112 
0.315971 -0.282961 0.0740417 
-0.049638 -0.0475676 0.496088 

-0.0555272 0.213562 -0.561296 
-0.0460475 0.123096 -0.214196 
0.00683621 -0.0100359 0.127003 

-0.157044 -0.0962211 -0.0625335 
0.0356696 0.0445777 -0.0141009 
0.0252814 0.0281363 0.319391 

0.64172 -4.45356 -0.187878 
0.156943 1.13878 -0.555755 
0.00663281 0.058765 1.63016 

-0.0210267 0.0212476 -0.0313597 
-0.0406659 0.00574914 0.0489591 
-0.00496618 -0.0100043 0.0632946 

-0.178369 -0.0679272 1.18903 
0.12361 0.31742 -0.120039 
0.084772 -0.0011535 1.4748 

-0.133816 0.026011 1.89392 
0.301044 0.241533 1.25711 
0.0999848 -0.0993107 0.605085 

-0.0255796 -0.0190459 -0.00910957 
-0.0154185 0.0249338 -0.100444 
-0.00582863 0.00250431 0.0425787 

0.147121 -0.00720236 0.0107314 
0.0459563 -0.0360917 0.0345376 
-0.0279307 0.000851849 -0.0701084 

0.00155971 -0.29923 -0.145314 
0.371195 0.0860531 -0.131527 
0.00764038 0.020873 0.0175051 

-0.910778 -1.02738 -0.346252 
-0.249664 0.162602 0.755034 
0.0305644 0.0873997 -0.327424 

-0.227602 -0.235835 0.200498 
0.180233 0.153003 0.499806 
-0.0281692 0.00971467 0.19064 

-0.0988072 -0.0711996 -0.135867 
-0.00356089 -0.00116888 0.113931 
0.0645027 0.0416633 1.00959 

-0.104801 0.119122 0.074288 
0.0665221 0.0691981 0.736599 
0.0889412 0.0213144 0.0368591 

-0.178607 -2.49024 -0.667559 
0.0983643 0.350847 -0.0383811 
-0.00449457 -0.0591497 0.0807324 

-0.0297656 -0.000609045 0.0511293 
0.00994809 0.00271638 2.71871e-05 
-0.0025818 -0.00109685 0.0407993 

-0.0191199 0.00623371 0.000691865 
-0.00651913 0.00508094 -0.0260399 
0.00365391 -0.00140231 0.021368 

-0.0448867 -0.0178769 -0.419721 
0.0307735 0.0199665 0.958527 
-0.000816839 0.00308341 0.0313851 

0.291233 -0.0546825 0.090411 
-0.00104059 -0.188526 -0.764349 
0.0373507 0.0132614 0.374477 

-0.155419 -0.0879906 -0.869981 
0.0332218 0.199145 -1.27739 
-0.0201078 0.0546619 0.189558 

-0.138871 0.000842131 0.203069 
0.329566 0.157139 -0.242212 
-0.00870545 -0.0345175 0.296962 

-0.0124668 0.01279 0.0055982 
-0.00730082 -0.0113455 0.0236529 
-0.000461018 0.000329333 0.0536001 

-0.0187746 -0.0193898 0.00863029 
0.00966807 0.00164738 0.0417363 
-0.000251568 -0.000172053 0.0268798 

-0.0568586 0.0997696 -1.21496 
-0.226544 0.138501 1.73834 
0.0326185 -0.0358563 0.287949 

-0.0400492 -0.00192647 0.0134067 
-0.00247774 0.0110853 -0.00223486 
0.00176875 -0.000916479 0.03265 

-0.0612732 -0.0576175 -0.230732 
0.218378 0.0338244 -0.0237948 
-0.00481576 0.00567479 0.0240929 

0.0304609 -0.218243 0.0187565 
0.264599 0.042561 0.10008 
-0.000244344 0.0420092 -0.131512 

-0.046563 -0.20527 -0.117543 
0.431717 -0.00639308 0.546741 
0.000857167 -0.0125904 0.297874 

-1.09704 -1.029 -1.51483 
0.158336 0.656901 -1.01747 
-0.0889857 0.0517809 -0.248538 

-0.016107 0.00110077 0.0672633 
-0.0163327 -0.0323004 -0.335898 
0.00206661 -0.00214334 0.0174505 

-0.0495131 0.0145005 0.127513 
-0.0536024 0.0380394 0.0110738 
-0.00739855 -0.0131253 0.0936978 

-0.0683335 0.0120569 -0.111793 
0.0180535 -0.0129495 -0.0811273 
-0.00675048 0.0302835 0.163481 

-0.323063 -0.319369 -0.18023 
0.11929 0.387451 0.0121259 
-0.0462594 -0.0586661 0.560351 

-0.105738 -0.922623 0.79067 
0.320501 0.257981 0.0489139 
0.0715785 -0.0278264 0.112968 

-0.0275527 0.0151576 0.0277563 
0.00315369 -0.00461544 0.0264631 
-0.00257655 -0.00146399 0.0535085 

-0.00865814 -0.0119104 -0.0477292 
0.0016896 0.0102211 -0.00177005 
0.0380293 0.0906564 0.361301 

-0.0337322 -0.0146371 0.0249612 
-0.0349448 0.0167836 0.0223399 
-0.0122766 -0.00909948 0.0569067 

-0.122384 -0.111014 2.27561 
0.0719976 0.0550392 0.594776 
-0.0305892 -0.0198143 1.34252 

-0.604371 -0.314973 0.803649 
-0.106408 0.345138 -1.24988 
-0.0395474 0.0461854 0.232478 

0.112141 -0.127108 -0.0506915 
0.178189 -0.0680613 0.0904399 
-0.0150311 0.0151238 -0.0922752 

-0.0831267 -0.0398481 0.25764 
-0.019873 0.0718596 -0.0255416 
0.01654 -0.00173101 -0.100731 

-0.00831666 -0.00542953 0.0017711 
-0.0279143 -0.0177428 -0.00533765 
0.00251622 0.00293975 0.0441679 

-0.0179078 -0.162214 0.0199358 
0.267402 0.0586507 0.0648102 
-0.00347434 -0.000548647 0.0568624 

-0.222678 -0.15456 -0.138741 
-0.0200031 0.171566 0.834688 
0.00508214 -0.00591007 0.229665 

-0.119231 -0.0235977 0.306652 
-0.0540998 0.00817706 0.133738 
-0.0193465 0.00293846 0.0959965 

-0.311405 -0.238451 -0.119454 
0.0473066 0.262907 -0.320161 
0.0309705 -0.0142662 -0.00750189 

-0.0575966 -0.0688111 0.110753 
0.184918 0.034136 -0.0904168 
0.00315969 0.0153952 0.304648 

-0.105102 0.018636 -0.66042 
0.124182 0.0145945 -0.104284 
-0.052217 -0.0202652 0.269434 

-0.0333551 -0.0752618 -0.0713744 
0.0681421 0.0317431 0.416332 
-0.0178391 -0.0236286 -0.0592367 

-0.171999 0.155262 0.109012 
-0.166587 0.301433 -0.129641 
-0.0577125 -0.00151032 1.15615 

-0.0309982 -0.0488479 -0.00383868 
0.0392725 0.0045259 0.00777398 
-0.00105537 -0.00122444 0.034351 

-0.0553938 -0.0262061 -0.257962 
0.0849042 0.0385939 0.433185 
0.0113657 0.0104813 0.0639701 

0.0127065 -0.567433 0.155017 
0.2382 0.100619 -0.0580265 
-0.0113187 -0.0150662 -0.00139567 

-0.0103187 -0.0281785 0.0132084 
0.0397792 0.00460148 -0.0207248 
0.000221753 0.00147739 0.0212377 

-0.00925868 -0.0576604 -0.0140851 
0.0886591 -0.0380604 -0.13186 
0.03057 -0.0149138 0.140917 

-0.179941 -0.0351279 0.447819 
0.131345 0.142798 -0.293979 
-0.060641 -0.0207926 0.259219 

0.00405314 0.0432169 0.0158605 
-0.120971 -0.166125 -0.235289 
0.0188467 0.0179185 0.1486 

-0.165099 -0.0704404 3.89555 
-0.00514265 0.12315 -2.94201 
-0.00252814 0.00428626 0.168543 

-0.0457976 0.102601 0.103539 
0.0200038 0.0383025 -0.0978537 
-0.0413273 -0.00692281 0.381286 

-0.0816539 0.0203208 0.383785 
0.0148064 0.036829 0.597253 
-0.0107912 0.00083202 0.0723135 

-0.0176196 -0.0698816 2.73554 
-0.0220183 -0.0497799 2.94616 
0.000437032 -0.00304443 0.21459 

-0.0508106 -0.00436893 0.117524 
0.0459769 -0.0351884 -0.0609161 
0.00250784 -0.00238746 0.106203 

-0.24048 0.205391 0.330911 
0.0298106 0.289019 -0.742371 
0.00463745 -0.000991528 0.00304703 

-0.0156959 0.0111629 -0.0150624 
-0.027878 -0.0239381 -0.0245157 
-0.000441058 0.00084325 0.0483462 

-0.0104199 0.0315913 -0.331257 
0.0142507 -0.0089261 0.419248 
-0.00287999 -0.00402357 0.0640107 

-0.0154925 -0.0557239 -0.0955437 
0.0608747 0.0265704 0.0881548 
0.0371547 -0.0158176 0.000458432 

-0.0316133 0.00057374 -1.21027 
-0.00969435 0.0322834 2.73702 
0.000737751 -0.00354191 -0.0355111 

-0.0750155 -0.027702 0.142262 
-0.00842992 0.0640653 -1.54442 
-0.00916958 -0.00838171 0.172944 

-0.107579 -0.097919 0.394817 
0.167746 0.0699205 -0.258489 
-0.0488257 -0.0391031 0.25817 

-0.00327412 0.00811269 -0.188412 
-0.0455297 0.0068605 -0.16954 
0.00166277 -0.00238979 -0.0138937 

-0.0580978 -0.128054 0.104739 
-0.0303876 0.071837 -0.349654 
0.0137136 -0.0100159 1.0511 

-0.013608 0.00871837 0.0877091 
0.0114286 -0.0013321 -0.0529128 
0.00265757 0.00134815 0.062832 

-0.183097 -0.546808 -0.273178 
0.381013 0.353174 0.382005 
0.020468 0.0342197 0.216321 

-0.00124591 -0.058676 0.0126826 
0.0281205 -0.00674345 0.0587432 
-0.00292199 -0.00266998 0.0568119 

-0.11972 -0.0501926 -0.740149 
0.0629757 0.0780831 -3.15618 
0.000143723 -0.0119465 -0.24274 

-0.0829934 -0.0400482 -0.25279 
0.0373939 0.0170276 0.032433 
0.0013817 -0.0101939 0.126046 

-0.0231305 -0.0274767 0.0793049 
0.0627463 0.00796533 -0.150681 
-0.00590862 -0.0244686 0.17699 

-0.0891095 -0.00100856 -4.38881 
0.0118582 0.134966 2.08231 
-0.00228327 -0.0107839 0.61724 

-0.00472718 0.0231203 -0.0378506 
0.00480818 -0.00330767 -0.0363066 
-0.000268094 -0.00442551 0.0366271 

-0.0437861 0.0185249 -0.162306 
-0.0123517 0.0134227 0.0329386 
0.0302039 -0.0128569 -0.028881 

-0.0557803 -0.722421 -2.5582 
0.0269151 0.260457 -1.04762 
-0.000297975 0.00312812 0.848818 

-0.0325914 0.0461281 -0.0146217 
-0.00695876 0.0231169 0.00785431 
0.00669055 0.0180611 0.0692134 

-0.0383315 -0.0210047 0.0291055 
0.0933495 0.0200352 -0.0241996 
0.00220262 -0.0811953 0.28864 

-0.0137635 -0.0503147 0.0695264 
0.0279858 0.00925706 0.0828389 
-0.0144224 0.00671164 -0.155916 

-0.618726 -0.146664 -1.01155 
0.52558 0.283615 2.787 
0.0145594 -0.0328036 0.29574 

0.00481066 0.103849 0.0195786 
-0.0997324 0.0434208 0.342254 
0.0189696 -0.0165296 -0.106402 

-0.0539215 -0.0737982 0.201834 
-0.00736347 0.169511 -0.00880898 
0.0224931 -0.031921 -0.00033049 

-0.173732 -0.428475 0.201843 
0.617474 0.365288 -0.632033 
-0.0202423 -0.0238773 0.238353 

0.0254139 -0.280776 -0.0327672 
0.182359 -0.0143789 -0.184635 
-0.0890701 0.0736864 0.437841 

-0.543288 0.372552 2.91779 
-0.389661 0.55505 2.86459 
0.0169452 0.0748278 0.688804 

0.0323701 -0.229328 -0.173064 
0.265173 0.0381776 -0.0107238 
0.0139876 -0.0338896 0.199019 

0.0280999 -0.210554 -0.048018 
0.262388 0.0440764 0.0276872 
-0.000837044 -0.00434379 -0.0329659 

-0.166821 -0.285049 -0.00480627 
0.340028 0.27812 -0.577574 
-0.0881314 0.0453259 1.18746 

-0.0745256 -0.247532 -1.55732 
0.068689 -0.0514045 1.81222 
0.0772747 0.00256496 -0.0600958 

-0.239522 -0.124027 -0.624908 
0.0935752 0.182083 -1.25094 
0.000534342 -0.00391162 0.22969 

-0.164607 0.122568 0.0295733 
-0.0251825 0.179742 0.385258 
-0.0598266 -0.0245643 0.0325533 

-0.0552015 0.00873106 -0.0113567 
0.0143727 -0.00792841 -0.0973939 
0.00608377 0.00799237 0.118 

-0.344243 0.0576389 0.570938 
-0.199699 0.364946 0.556925 
-0.0196465 0.0778832 0.115991 

-0.0384283 -0.00221749 -0.0258115 
-0.0569896 -0.0208959 0.0132136 
-0.013022 -0.0340403 0.150387 

-0.111961 -0.399679 0.995253 
-0.25689 0.127522 -1.3585 
0.00804984 -0.0052595 -0.0868892 

-0.0150513 -0.0297404 -0.213415 
0.048405 -0.0141746 0.68281 
-0.0171092 0.0269561 -0.153057 

-0.0972125 -0.35028 -1.38879 
0.0486929 0.493723 0.88371 
0.0110092 -0.0143046 -0.065941 

-0.0591253 0.0158362 -0.160226 
0.00719885 0.0461872 0.796743 
-0.000149008 -0.00105852 0.0166331 

-0.0365526 0.032404 -0.146972 
0.0176976 -0.0108521 -0.080751 
0.00878362 0.0040072 -0.0111761 

-0.146389 -0.0179598 -0.929193 
0.136408 0.0505862 0.219684 
0.0732462 0.00623509 -0.420127 

-0.00864216 -0.0353683 -0.017619 
0.0446615 -0.000970772 -0.0148683 
-0.000207043 -0.00233098 0.0136895 

-0.0220095 -0.0337488 -0.0574818 
0.00181758 -0.0198288 -0.0634805 
0.00468777 0.00685899 0.0626099 

-0.0613165 -0.0170236 0.598096 
-0.0200376 0.0389247 -0.953576 
-0.00182695 -0.00325898 0.422373 

-0.0259199 -0.00842407 0.801197 
-0.00400566 0.0131694 0.47805 
0.000404253 0.00108331 0.0930829 

-0.0933228 0.0583064 0.321777 
-0.211605 0.146262 -0.119705 
-0.0254157 0.00342248 0.255284 

0.0186151 0.0321439 -0.162722 
-0.00102588 0.00523606 0.00120526 
-0.0699872 0.0148171 -0.103107 

0.0740684 -1.36997 -0.603078 
-0.081728 0.44628 -0.205143 
-0.00153001 0.00148981 0.00169106 

-0.00249078 -0.00139738 0.00329399 
-0.000540666 -0.00547578 -0.0151634 
-0.00665128 0.00552511 0.0451513 

-0.00687135 -0.0116718 0.00201023 
-0.00426861 0.00234073 -0.00529478 
0.000319718 -0.000413733 0.00466518 

-0.0673538 0.0250893 -0.0296467 
0.101966 0.0523192 -0.17518 
0.0361874 0.0866033 0.154191 

-0.00661762 0.00557119 -0.0241872 
-0.0181197 -0.0351219 -0.00679155 
-0.0020204 -0.00394187 0.0321403 

0.0171347 -0.296785 -0.104405 
0.261243 0.0618747 0.174895 
0.0235144 -0.00646473 0.0805322 

0.00387028 0.00913152 0.0416426 
-0.0749031 -0.0416496 0.825022 
0.000297458 -0.00455882 0.077029 

-0.0149562 -0.632483 2.54444 
-0.0061767 0.261156 0.412776 
0.00371137 0.00759639 0.269944 

0.00240104 -0.363942 -1.1381 
0.415465 0.154152 4.87789 
0.0285346 -0.00916971 0.729821 

-0.0625693 0.0432477 0.0972114 
-0.108289 -0.0239557 0.0680449 
-0.0204658 -0.0136514 0.135732 

-0.0394354 0.221018 -0.102265 
-0.0307095 0.0584852 0.434148 
0.0132678 -0.000178547 0.0922684 

0.00386116 0.00776345 -0.00783093 
0.000551537 -0.0100527 0.0112916 
-0.00480235 -0.00315404 0.004037 

-0.00753829 -0.0192678 -0.0246832 
0.0275906 0.00323859 0.0978561 
0.0022792 -0.00225484 0.013373 

-0.0615707 0.0422616 -0.0451238 
0.0168954 -0.0324642 -0.0366342 
0.00967538 -0.0127021 0.141453 

-0.0196608 0.0260738 -0.00482984 
-0.0102727 0.00579379 0.0368427 