# vtk DataFile Version 3.0
Output file generated by Yade's KinematicLocalisationAnalyser
ASCII
DATASET UNSTRUCTURED_GRID

POINTS 7062 float
239.52 52.616 -0.162641
30.1674 33.9915 -0.402883
198.98 28.517 0.247622
238.819 5.59282 0.557706
55.753 44.1768 -0.256062
157.645 37.6304 0.291163
125.173 6.97664 0.382319
18.966 2.32804 -0.288159
235.966 101.486 -0.22275
175.129 41.2876 0.194436
244.041 2.6148 -0.454731
36.9384 27.1464 0.270385
84.4985 57.3199 0.323291
246.062 50.1347 0.44201
100.138 2.15391 0.47827
18.6312 43.0834 -0.253235
176.903 13.6237 -0.307633
262.77 53.1527 0.369048
251.326 12.7972 -0.429333
92.138 41.8377 0.23912
234.713 70.689 0.234499
271.439 102.461 0.227352
171.995 11.5345 0.41004
236.154 9.51839 -0.566413
243.487 24.3361 -0.651565
130.976 56.6327 0.209295
277.913 57.9451 -0.407212
35.4081 7.37762 0.123205
121.788 18.7104 -0.259844
209.727 49.6157 -0.179122
258.46 31.3393 0.659429
154.516 5.75544 0.275507
243.034 33.891 -0.242271
211.357 32.4896 -0.190038
277.768 93.9401 0.264467
239.187 8.70103 -0.252702
264.403 17.5682 0.346342
86.3132 15.7951 -0.244137
207.445 5.54418 0.394368
255.863 16.0427 -0.296835
165.23 59.4229 0.23395
269.092 75.0911 -0.353661
203.212 49.6167 -0.29257
241.657 47.9644 0.231455
70.9557 46.2898 -0.157264
130.769 52.8521 0.18341
242.273 44.7069 0.288642
227.716 88.9361 -0.165283
175.949 42.919 -0.226611
58.144 16.8801 -0.443718
266.379 58.6738 -0.405709
90.1034 11.5235 0.301971
267.563 61.3338 -0.440786
174.599 47.9484 0.215631
212.692 43.7335 0.389052
220.802 26.4081 0.37392
268.038 95.5686 -0.282386
190.549 21.5457 0.317424
9.22726 6.05039 -0.288055
206.046 51.6963 0.318466
116.637 39.7371 -0.258743
274.039 84.4655 -0.160096
125.193 25.0463 0.514603
151.095 12.2793 0.26019
80.9911 34.9378 0.361151
125.364 69.5075 -0.285571
67.208 25.0834 0.346115
161.826 57.635 0.342155
69.022 6.86655 0.2854
199.229 76.6101 0.204592
2.40959 8.66246 -0.31105
251.567 63.6891 0.296547
236.088 52.4895 -0.239799
3.6441 48.0905 -0.272894
233.446 32.9328 -0.297534
15.6724 2.49626 0.257955
227.958 45.9334 0.233545
74.9544 2.62517 0.232572
67.3738 17.2551 -0.383596
5.4682 31.6855 -0.347125
41.8339 18.7699 -0.377729
254.115 16.8099 0.32409
270.337 28.4826 0.230087
184.299 5.8678 0.401905
183.802 56.1081 0.276667
212.836 70.9311 0.216905
264.805 79.9922 -0.130355
77.0211 41.3719 -0.237229
94.012 26.46 0.39168
9.28683 36.6239 0.265364
131.34 32.2179 -0.266603
212.444 53.6361 -0.454927
266.391 14.5804 0.53873
145.833 14.7614 -0.271442
154.14 59.5432 0.243485
11.1789 14.5299 -0.231266
108.81 42.7048 0.273731
208.878 57.6494 -0.346244
132.464 19.1912 0.252155
197.773 23.6666 0.28454
175.167 38.1247 0.304915
143.161 17.4846 0.373299
268.71 5.78055 0.548492
222.292 24.2962 0.391945
152.201 45.0254 -0.179226
137.264 43.3442 0.24492
63.6306 41.8107 0.263496
59.6073 49.2622 0.292384
272.273 56.158 0.374732
12.9611 36.8152 -0.40379
185.294 64.0115 -0.353079
78.082 51.2066 -0.296297
104.066 57.1776 0.146839
14.6929 31.0011 0.189725
127.912 54.7953 0.186526
211.68 65.696 -0.266114
200.311 21.7861 0.304718
262.741 66.1281 -0.221365
272.475 4.53029 0.596817
219.38 17.9803 -0.212417
141.893 13.8802 0.323829
127.626 38.7227 0.363057
140.612 2.52916 -0.311145
137.892 15.9316 0.455474
201.861 29.55 -0.314561
63.6245 25.2093 -0.244952
158.252 61.1822 0.201082
111.764 44.3608 -0.359139
113.402 57.823 0.204336
178.328 57.5806 0.227879
88.8318 10.5117 -0.361154
156.289 50.9862 -0.284956
248.739 2.44248 -0.45632
36.3203 5.61944 -0.173861
71.8684 10.4255 -0.279972
236.042 89.4229 -0.226155
249.574 89.4159 -0.177458
171.085 25.0416 -0.300635
235.23 25.778 0.28829
67.5024 32.705 0.321799
253.185 43.2222 -0.437254
13.7064 26.0709 -0.229161
237.455 98.3666 0.0149681
5.3833 15.8354 0.217023
21.6436 4.3942 0.392249
261.598 20.3242 -0.351122
189.613 8.7023 0.262131
54.3426 41.118 0.233426
222.132 3.13572 -0.507285
181.209 53.2788 0.233582
162.562 10.0177 0.339958
175.506 71.2635 -0.210235
168.544 2.66662 -0.217777
168.346 5.51818 -0.379225
61.6616 2.35909 0.39955
5.05996 44.7032 0.276978
277.687 101.861 0.23539
231.23 87.0796 -0.165386
272.044 32.8908 -0.288614
172.605 52.642 0.16983
178.35 51.7986 -0.174494
37.8446 2.43042 -0.30382
262.623 60.8239 -0.432749
270.844 31.4722 0.186074
149.22 2.44859 -0.312713
271.295 99.4912 0.186345
37.4279 21.4095 -0.277479
234.974 6.88529 -0.468426
64.3883 43.5572 0.348326
105.932 4.6148 0.224267
213.698 36.6593 0.252044
274.651 51.6982 0.174107
12.9854 27.7878 0.230838
32.6597 15.7302 -0.243666
25.2986 27.773 0.156306
107.35 4.07433 -0.538303
21.6491 41.338 -0.159708
187.673 52.6714 0.14287
201.909 81.0539 -0.190179
157.574 57.8462 0.131862
233.559 5.60782 0.24063
4.67264 11.0331 -0.207497
130.603 64.4902 -0.280326
229.038 6.98756 0.546769
180.625 23.0177 0.336234
276.391 6.58327 -0.381436
210.296 44.3666 -0.1864
56.2778 30.9117 0.371714
137.852 22.7874 -0.224528
30.6908 26.5362 -0.148138
122.252 37.3079 0.395503
144.434 36.5627 -0.136302
229.429 87.9199 0.196431
191.424 8.6587 0.282011
133.598 22.3921 0.288341
37.0094 41.2793 -0.182311
259.337 10.5336 0.359528
123.739 24.8102 -0.268214
213.717 84.2134 0.0694817
229.327 67.4515 -0.502096
180.086 13.5802 -0.315512
11.1278 43.3329 -0.244496
200.882 4.06487 -0.213925
264.916 86.9368 -0.221722
116.418 42.9811 -0.286397
161.361 68.7457 -0.216043
68.7268 33.6663 -0.228981
37.1883 7.3536 0.212745
251.352 106.15 0.235057
24.9579 7.78738 -0.268783
174.863 44.6055 -0.165624
25.8762 43.9624 0.299194
146.154 33.2464 0.139421
228.245 41.0921 0.340279
247.608 71.1807 0.435054
241.074 3.82486 0.424789
229.63 98.1576 -0.27311
218.396 11.472 -0.368436
248.115 7.60963 -0.500285
265.435 71.435 0.209543
266.525 92.0607 -0.233725
152.987 4.76489 -0.422937
206.366 70.1786 0.187674
203.835 74.0991 0.190624
141.553 20.5968 -0.385044
184.953 77.9965 -0.262832
257.018 49.9436 -0.313345
237.084 12.6001 -0.585023
244.711 4.21392 0.467261
150.526 44.2849 -0.294723
209.872 3.78786 -0.441061
106.257 32.2259 0.331102
237.115 4.88668 0.490314
196.659 61.5184 0.342542
182.037 4.36818 -0.271526
275.86 34.9228 -0.353591
75.8131 7.39175 -0.311145
51.1555 45.2343 0.237202
200.153 40.4594 -0.223426
102.442 14.9741 0.329486
41.2404 24.3962 0.448345
31.353 44.5056 -0.263114
188.747 7.27116 -0.303862
246.631 25.186 -0.295772
188.973 16.8132 0.205326
151.536 27.145 0.552379
121.816 66.3479 0.309746
113.146 33.4214 -0.287695
217.66 37.378 0.191353
187.633 74.0434 -0.227331
116.327 56.2206 0.248576
114.134 31.9473 0.300523
273.841 104.542 0.255978
88.478 35.6088 -0.235203
187.094 10.1959 -0.313408
52.6154 38.1756 -0.202721
251.833 28.4387 -0.466286
235.27 27.4792 -0.283138
143.096 21.2315 -0.348387
101.806 52.3101 0.314633
266.197 38.4568 -0.500921
245.796 67.9467 -0.307867
14.7156 43.1835 -0.132762
127.632 43.9887 0.262398
33.9149 25.123 -0.319168
2.28009 19.747 -0.267714
27.5867 19.1525 -0.334843
157.342 0.984437 0.283924
158.625 63.746 -0.298514
111.004 17.6043 -0.340461
200.647 64.9577 -0.21777
255.421 100.49 0.248843
214.705 33.6545 0.352331
154.862 38.3446 -0.225807
238.688 25.8895 0.19897
114.111 12.836 -0.272872
162.094 18.1508 -0.196214
231.193 101.488 -0.285104
100.213 17.3164 0.287886
13.5345 16.0411 -0.363122
247.995 90.6479 -0.277689
80.162 2.80717 0.148445
73.5086 15.8061 0.302594
168.679 39.4658 -0.329959
131.007 45.3939 -0.228384
251.02 39.2028 0.256009
233.579 24.8005 0.246919
129.747 31.2503 -0.198408
257.242 41.3017 -0.341487
277.794 61.8175 0.318179
275.733 13.1187 0.172223
184.909 34.7389 -0.313589
236.987 31.9302 0.262532
264.869 59.7566 -0.250817
249.338 83.2974 -0.175032
252.682 65.3309 0.163743
113.203 51.3804 0.274513
90.8084 30.5693 0.198022
247.17 98.1352 -0.267913
62.3746 18.3177 -0.257577
100.651 9.96004 0.363824
204.938 42.263 -0.253857
93.6603 4.02938 -0.367446
277.841 79.0792 0.30526
49.3514 40.1788 -0.278254
153.071 63.4129 -0.29966
117.181 64.4027 -0.183345
148.54 36.2046 0.315247
161.48 2.32897 -0.169827
30.8962 12.3926 0.302907
229.936 37.4604 0.374999
134.845 57.2158 0.253597
165.338 17.8864 -0.390264
73.1493 27.2318 0.267964
173.82 46.1906 0.207655
220.663 33.944 0.4108
244.774 77.243 -0.139536
87.6812 63.3279 -0.270795
193.358 57.697 -0.214357
133.883 25.8506 -0.356979
206.55 25.8339 0.308138
248.096 52.74 -0.450128
183.904 16.7134 -0.157884
144.162 27.7357 0.322869
273.409 26.4383 0.521127
246.656 28.7381 0.227703
48.4379 8.68313 0.301276
216.72 3.37376 -0.479367
72.7038 0.923846 -0.28023
230.056 13.2895 -0.574519
142.671 37.3468 -0.488528
248.868 93.1915 0.12157
78.8372 29.6232 -0.276971
184.784 65.7866 -0.249219
230.132 58.12 0.235579
11.1182 40.0273 -0.288296
155.785 64.2708 -0.377011
275.342 116.108 -0.202198
117.278 32.0505 0.3359
244.616 84.6954 -0.225397
239.611 35.4519 0.248481
239.352 62.7163 0.179175
166.784 60.5591 0.221315
142.96 26.3509 -0.370177
173.243 2.29167 -0.32031
181.307 49.7536 0.302963
203.293 23.1071 0.218711
229.829 76.3595 -0.223004
274.006 22.8705 0.172309
182.703 11.7993 0.26506
122.712 26.4845 0.214889
265.314 25.8159 0.35333
90.609 42.934 0.189994
219.349 68.4732 -0.191453
137.729 52.8353 -0.229022
174.994 34.7139 0.272677
227.164 96.1956 0.048397
220.887 56.7734 -0.249013
254.112 73.3429 0.283081
99.238 0.776246 -0.285929
187.482 47.5497 0.319543
260.597 76.3317 -0.208187
44.6893 39.2382 -0.213323
119.886 22.0604 -0.184239
243.422 65.5169 0.26021
52.8155 30.7786 0.31394
171.336 31.6674 -0.150171
233.192 77.5229 -0.31881
257.837 5.8096 0.548115
232.021 48.9052 -0.313362
258.361 99.598 0.27017
215.575 52.8185 -0.317087
95.309 48.8899 0.15771
177.199 23.2785 0.185498
45.2818 20.1456 0.171413
233.744 82.9281 -0.20551
44.254 28.8592 -0.30767
102.957 4.3143 0.298516
248.474 85.0917 0.121545
240.58 73.349 0.341479
79.9743 21.5291 -0.211029
269.607 57.7475 -0.35334
7.81567 40.2222 -0.32942
24.2356 25.9855 -0.166371
189.207 20.0606 -0.258663
216.589 59.3063 -0.326088
205.761 11.187 -0.500274
277.896 77.2325 0.395973
175.18 13.6693 -0.288891
250.443 52.3022 0.431455
22.2784 2.75229 -0.131519
83.2455 7.63657 -0.179472
[...]
POINT_DATA 7062
TENSORS Strain_matrix float
0.0203502 -0.117054 -0.0710094 
0.0896732 -0.00370199 0.0513674 
0.0342471 -0.0143255 -0.0520273 

-0.0239866 -0.0271916 -0.0807464 
-0.000662544 0.00781596 0.936254 
-0.000991205 0.00539723 0.0205842 

-0.00319046 -0.0169413 0.015844 
-0.0192055 -0.000583207 -0.00426022 
0.000310567 -0.00186588 0.0134814 

-0.0577298 0.0027028 -0.125241 
-0.0546729 0.00496543 -0.214814 
0.00275189 -0.0176052 0.0515179 

-0.0508201 -0.0674537 -0.00758525 
0.074823 0.0173351 -0.0796854 
0.00397003 -0.0742554 0.265227 

-0.937872 1.40301 4.60526 
-0.804949 1.30098 4.58885 
-0.0522662 0.144182 0.465445 

-0.206202 0.250218 0.0909268 
-0.0622754 -0.0459321 -0.00698211 
0.0473893 -0.0181198 0.563355 

-0.0178142 -0.0182479 -0.0529426 
0.00186128 -0.013267 0.0209813 
0.00492316 -0.00532446 0.0541607 

0.0198059 -0.0402405 0.0158342 
0.151843 -0.11907 0.270175 
0.0591011 -0.0707996 -0.120457 

-0.306845 0.00855437 0.490075 
-0.0983013 0.186569 -0.410501 
-0.0284885 0.0103211 0.232791 

-0.0218848 0.0397983 0.0164602 
0.00567896 0.0143681 -0.0399949 
0.0237669 0.000126676 -0.00748086 

-0.00170734 -0.0348325 -0.0038051 
0.00859837 -0.00589124 0.0128625 
-0.000460811 0.00062004 0.0161084 

-0.155899 -0.544122 -3.56345 
0.213569 0.606784 6.15263 
0.0136649 -0.0293623 -0.489604 

0.0349581 -0.115708 -0.0483225 
0.138562 0.00441229 -0.156621 
0.00075627 0.00549424 -0.00265339 

-0.332846 0.1002 0.788506 
-0.114956 0.280355 -0.556227 
0.0128241 -0.00474381 0.251496 

-0.00648672 -0.00527965 -0.0548945 
0.011575 -0.00629562 -0.0528671 
-0.00126825 -0.000120722 0.0734996 

0.00465702 -0.010699 -0.0356601 
0.0174994 -0.0331985 -0.0893737 
-0.00248184 -0.00114187 0.0756944 

0.061316 -0.150237 -0.385111 
0.0421658 0.0363901 -1.48084 
-0.00662862 0.0236593 -0.299887 

-0.449262 -1.36391 3.11545 
0.565271 1.13126 2.38331 
-0.0289918 0.00932771 -0.0145158 

-0.178836 -0.50393 0.158339 
0.0765693 0.200255 0.19581 
-0.029285 -0.00364155 0.125645 

0.0222321 -0.092748 -0.181283 
0.125121 0.0206012 0.106926 
0.00120395 0.00114085 -0.0831729 

0.124307 0.0473712 0.0878613 
-0.187838 -0.119333 -0.380948 
0.0284541 -0.0255111 0.21667 

0.0013119 -0.0215149 -0.0773281 
-0.0111719 -0.0422265 -0.0392242 
-0.00482905 0.00251916 0.0613322 

0.00212078 -0.0698368 -0.0884521 
0.0298736 -0.032496 -0.210803 
0.00755029 0.0346997 0.139186 

-0.39355 -0.800166 11.0578 
0.329519 0.442028 1.35326 
0.012841 0.000240298 2.45102 

0.033717 0.0363915 -0.104897 
-0.0716192 -0.00302331 -0.38966 
-0.0152509 0.0190205 -0.206176 

0.0515597 0.013966 0.133923 
-0.0116668 0.0332379 -0.205167 
0.0192125 -0.00888968 -0.183353 

-0.00785429 0.00461211 -0.0163431 
-0.000132213 0.00312871 -0.012588 
-0.00406938 -0.00138086 -0.00949197 

-1.62445 -1.27451 3.09725 
1.73042 1.55863 -3.69087 
0.0445638 0.037772 0.467177 

0.00103975 -0.139788 0.0166145 
0.14897 0.00306309 0.0103827 
0.00524918 -0.00294524 0.0218554 

-0.183361 -0.200721 -1.88333 
0.000559002 0.151809 -14.738 
-0.00134579 0.00265652 -0.138706 

-0.0135952 -0.00655973 -0.00375969 
-0.00460531 -0.0116773 -0.0263477 
-0.000151171 0.00302205 0.0471658 

0.0664013 -0.143516 0.124105 
0.132254 0.0106378 -0.0286701 
-0.0125552 0.00105001 -0.0337297 

-0.876024 -2.61995 1.42883 
0.754244 0.974719 -0.968142 
-0.0196493 0.0127591 0.538511 

0.429485 0.0821987 1.79028 
0.715434 -0.178409 2.19262 
-0.0637519 -0.0140376 -0.223172 

-0.0258207 0.0319172 0.00705281 
0.171572 0.0240515 0.226577 
-0.00190879 0.0243673 0.0213048 

-0.355482 0.0418733 0.766601 
0.275269 0.340971 -0.672768 
-0.0856058 0.0217481 0.314967 

-0.0260229 -0.0346103 0.250502 
-0.0225792 0.042843 -0.191022 
0.0358208 -0.031505 0.42093 

0.0234541 -0.0104908 0.030409 
0.00150357 -0.0175119 0.0705811 
0.000628549 -0.00342373 0.0262415 

-0.72114 -0.282356 -1.99112 
-0.0808932 0.343873 0.628758 
0.025622 -0.0251056 0.063856 

0.0935554 0.32249 0.211038 
-0.418656 0.0389788 -0.685832 
0.0644238 -0.0239275 0.726981 

0.0339763 -0.0104702 -2.93067 
0.0411788 -0.0062507 0.861095 
0.00261448 0.00287559 -0.192885 

-0.142746 -0.190737 0.537054 
-0.380557 -0.0815501 0.960897 
-0.0752105 0.00166196 0.796714 

0.0181063 -0.101472 -0.00549023 
0.12863 0.0158053 -0.00328707 
0.00103815 0.000809625 -0.0331408 

-0.185044 -0.0834334 0.296665 
0.0252773 0.110223 -0.181772 
0.0250623 0.0413367 0.510013 

0.0423854 0.0417113 0.0330368 
-0.0389659 -0.0148173 -0.109686 
0.00175184 0.00099703 -0.0973831 

0.03736 -0.105345 -0.0294334 
0.168073 0.0288945 -0.14159 
-0.00781289 0.00422399 -0.054178 

-0.0086292 -0.0760828 0.000383679 
0.0912081 0.0262995 0.0586395 
0.000541922 0.00244987 -0.0207015 

-0.302388 -0.0407751 -0.195092 
-0.127082 0.168474 1.75869 
-0.0241414 0.00884049 0.348361 

-0.060871 -0.0328067 0.385584 
-0.0302494 0.0703161 -1.00816 
-0.00222543 0.000620323 0.185641 

-0.274411 -0.196446 -0.141444 
-0.107887 0.294077 -0.734287 
0.0403363 -0.0470753 0.0462083 

-0.260846 0.0429107 -0.307639 
0.023713 0.236193 0.369449 
-0.00522275 0.0217628 -0.150092 

-0.12753 -0.0232772 -0.464459 
0.0896648 0.0702511 0.116468 
0.0225408 -0.00770635 -0.0785358 

-0.928898 -2.25957 6.39218 
-0.117924 0.180743 1.29121 
2.30623e-06 0.0221048 0.135729 

-0.0171108 -0.437821 1.34967 
0.029276 0.125592 -1.48005 
0.0050684 0.0104676 0.215875 

-0.262163 -1.14562 -0.981302 
0.00580017 0.493838 1.47426 
-0.0523151 0.0338184 0.933548 

0.0512048 0.051732 -1.66795 
-0.0854138 -0.0746576 2.53807 
0.0108659 -0.026182 -0.154211 

0.000169295 -0.0116403 -0.00582726 
0.00724806 -0.0142281 0.00224152 
0.000188148 0.000299673 0.0255748 

-0.0046321 0.0122949 -0.0203652 
0.0126671 -0.011003 0.0506527 
0.000397561 0.00176473 0.0319769 

-0.037267 -0.145851 0.1929 
0.0519333 0.0191425 0.81848 
-0.0026683 -0.018841 0.0866135 

-0.033433 0.137865 -5.89251 
-0.0243541 -0.0646243 5.73055 
0.0256741 0.000221925 0.386441 

0.250129 -0.0795595 1.02068 
-0.11198 -0.218126 -0.808643 
-0.0299326 0.0331595 0.721573 

-0.403202 0.133234 19.1785 
0.169866 0.0910128 -23.9832 
-0.00432735 0.0136754 1.50274 

-0.0308737 0.0368942 0.00508158 
-0.0252123 0.00764976 0.0152842 
0.000846287 -0.000297325 0.0570786 

-0.105129 0.0990321 0.130082 
0.0357274 0.0376735 0.376476 
0.0866834 0.0261295 0.539916 

0.0851826 0.0724711 -0.242958 
-0.0596277 -0.00944817 -0.0647516 
0.011438 -0.154457 0.29005 

0.0374764 -0.0861821 -0.427811 
0.0655373 0.0186291 -1.10568 
-0.0247167 0.00454239 0.471629 

-0.93363 -0.458142 -58.1548 
-0.212587 0.226931 -11.8516 
0.0134353 -0.0110371 -0.33962 

-0.00973858 -0.0235122 -0.0122731 
0.0229802 -0.0101065 -0.0140672 
-0.00159271 0.00107147 0.0641622 

-0.000321343 -0.0961134 -0.0420914 
0.0935707 0.00198194 -0.0236447 
0.0025811 -0.00269632 0.0529441 

-0.0167469 0.0089693 0.0683291 
-0.0130899 -0.00909046 0.0037705 
0.00047385 -0.00423176 -0.0635266 

0.0385281 -0.107449 0.0359137 
0.109371 -0.00519397 0.0134888 
0.000907276 0.000802635 -0.0251004 

0.0358325 -0.104573 -0.11881 
0.0300062 0.014415 0.122318 
-0.00688703 0.0023613 0.0684653 

0.0113384 -0.709243 1.86127 
0.591934 -2.02609 7.23823 
-0.000401862 0.00156795 0.0288651 

-0.493614 0.0367941 1.3342 
-0.398163 0.287863 0.333691 
-0.00695546 -0.103618 -0.207924 

-0.0296627 -0.0147082 -0.00328455 
0.00960963 0.0114169 0.0939133 
-0.000672073 0.053341 0.0925711 

0.026332 -0.179024 -0.10189 
0.238273 0.0157393 0.0609131 
0.0150555 0.014391 0.382117 

-0.0243067 -0.00566215 -0.00827025 
0.0360935 0.0154827 0.0478261 
0.00217785 -0.00422914 0.0383947 

-0.0866455 -0.133313 0.62953 
-0.000671966 0.0512783 -0.65195 
0.0227732 0.00417923 0.0924296 

-0.0465338 -0.0524897 0.921251 
0.0826388 0.0273874 -0.428211 
-0.00566811 0.0218006 0.132863 

-0.00281617 -0.0209256 0.0964698 
0.0295389 0.00654657 0.00702811 
0.00153858 3.39807e-05 0.0175861 

-0.898462 -1.11597 1.1711 
-0.864454 0.257509 -3.35166 
-0.00982902 0.0599301 0.195043 

-0.468344 0.267345 -1.1816 
-0.293148 0.460131 -0.815733 
-0.00149849 0.0196713 -0.0982231 

-0.00205416 -0.00365835 -0.0214536 
0.0046119 -0.0365126 -0.0495722 
-0.00148584 0.000879259 0.132293 

0.0165485 -0.12638 -0.420885 
0.0333828 -0.00603865 2.36864 
-0.00518835 -0.000267269 0.181759 

-0.0785527 -0.0580658 0.236289 
0.159125 0.0776858 -0.367605 
-0.00665383 -0.00581874 0.0986649 

0.0446315 -0.088896 -0.291204 
0.10859 -0.0887435 0.0470382 
0.00429588 0.000479381 -0.0112756 

-0.139414 -0.15052 -0.439476 
0.0540337 0.0576432 -0.260943 
0.00293847 0.00446901 -0.0552833 

-0.0288613 -0.0573921 0.213118 
0.0790553 -0.034109 0.0325363 
-0.0127997 -0.0509122 0.135514 

0.00551534 -0.0971038 0.0261433 
0.0074157 -0.000230179 -0.125101 
0.00404902 -0.0102564 -0.0143186 

-0.0708689 0.000324521 0.068981 
-0.16912 0.0980706 1.24798 
-0.0330258 -0.0137959 0.563414 

-0.0313278 -0.135046 -5.72537 
0.038616 0.0995957 -12.3219 
0.00763018 0.0203571 -0.0368481 

-0.460501 -0.615359 2.49486 
0.176832 0.504788 3.62761 
0.0390543 -0.0214214 -0.572777 

-0.0644627 0.0144508 -0.282417 
-0.104261 0.0170976 -0.508263 
-0.00322172 -0.0103636 0.181557 

0.012487 0.0502152 -0.0363735 
-0.0547447 0.00601967 -0.0619976 
-0.00111641 0.000376335 -0.0135839 

-0.0290445 -0.00102221 0.0146725 
0.0398972 0.00341209 0.0520176 
0.00161315 -0.00172191 0.118312 

-0.96214 -0.400759 3.35992 
0.744671 0.572964 -2.4411 
0.0508593 0.0981323 0.832417 

0.0171558 -0.122705 -0.00538341 
0.125003 0.00841924 0.0101165 
0.000846616 0.0025672 -0.0214119 

-0.415086 0.423944 -1.78435 
-0.576984 0.215525 -0.942734 
-0.0351327 0.0201901 0.267217 

0.00101003 -0.013525 -0.00753249 
-0.0139156 -0.00886907 -0.0354198 
0.000645904 -0.000699226 0.0310912 

-0.160071 0.0259646 0.178796 
-0.0194601 0.0765063 0.258359 
-0.00881315 -0.000132851 0.0825859 

-0.169679 0.268668 0.766741 
-0.270556 0.156632 1.16886 
-0.00109578 0.0386475 0.396694 

-1.12978 -0.649659 -0.41618 
0.985413 0.918284 -0.980522 
-0.00742963 -0.00369881 -0.00778258 

-0.0244695 -0.0587082 -0.41714 
0.0310032 -0.0175532 0.495888 
-0.0257544 0.0549333 0.200588 

-0.131 0.535248 0.585228 
-0.222738 0.275162 -0.124638 
0.0599794 0.0510159 1.29276 

0.0545225 0.247487 -0.119298 
-0.190531 -0.044183 -0.108189 
-0.00221746 -0.000156159 0.0311288 

-0.0194118 -0.0686535 -0.0869299 
0.0830221 -0.0111205 -0.0384613 
0.0347244 0.0718527 0.394929 

-0.0458229 -0.534304 -14.9843 
0.019574 0.542689 8.07139 
0.00303692 -0.0094231 -0.164147 

-0.181473 -0.0858582 1.27916 
0.156833 0.24564 -2.20275 
0.0530202 -0.0578491 0.162446 

-0.0131118 -0.0500408 0.577708 
0.000163407 0.0137804 0.23203 
-0.00452622 0.00681102 0.279901 

-0.0120347 -0.122763 0.677993 
0.1154 0.0256325 -2.28243 
0.0150474 -0.00922399 0.253575 

-0.215255 -0.17941 4.24109 
-0.11263 0.166428 -1.74465 
-0.0187648 -0.0193874 -0.137163 

0.0907495 0.148034 0.388857 
-0.116724 0.0112646 -0.512228 
-0.0323288 0.0298925 -0.00975786 

-0.0120529 -0.0480744 -0.111516 
0.0110109 0.00354862 -0.0101359 
-0.0492334 0.00202368 0.31364 

0.0233031 0.0432286 -0.033479 
-0.0450678 0.00232792 -0.0348128 
-0.00470744 0.0227478 0.0683102 

-0.0687889 -0.0477684 1.34226 
0.0737122 0.146576 0.544885 
0.00498235 0.00609442 -0.030052 

0.00324593 -0.012852 -0.0188936 
-0.0167098 -0.0153719 0.00066159 
0.000335335 -6.46578e-05 0.0584417 

-0.00259896 -0.0813371 -0.0125759 
0.090114 0.0135871 0.0219387 
0.000520349 0.00166835 -0.00656591 

-1.3869 -0.247413 0.290725 
-0.0766465 0.602523 -0.276682 
-0.0309776 0.0176739 0.750383 

0.0412085 -0.193873 0.201794 
0.0900839 0.0317995 0.037201 
-0.00161254 -0.00576793 0.033601 

-0.0928555 -0.0975545 0.519192 
-0.197109 0.00791036 0.00321587 
-0.042606 0.00980917 0.315732 

-0.0270147 0.0263185 -2.11421 
-0.104916 0.0463581 -1.13447 
0.00624902 -0.0197198 0.11528 

-0.159985 0.0825806 0.331366 
-0.180229 0.0428449 0.360471 
0.0648297 -0.0403008 0.39421 

-0.478455 0.48361 1.43605 
-0.714962 0.65435 4.89979 
-0.0116214 -0.0341865 0.479244 

-0.00563519 -0.0979732 4.00289 
-0.0505176 0.0153755 -1.10921 
-0.0177606 -0.0232753 -0.106452 

-0.0733635 -0.007178 -0.635798 
0.00241299 0.103343 -0.223993 
0.00415009 -0.00336576 0.0470075 

-0.0324945 9.82493e-06 0.23837 
0.036364 0.0520285 -0.166557 
-0.00763222 0.00516375 -0.0756242 

-0.0709053 -0.213018 -5.71659 
0.0092001 0.211675 6.33213 
0.0386439 0.0281748 0.0836608 

0.0526854 0.0241773 0.0789397 
0.00173213 -0.0235129 -0.0242137 
-0.0169972 0.0118231 0.772026 

-0.301403 -0.118149 0.590198 
-0.140173 -0.029704 0.249525 
0.0225575 0.0662085 0.283924 

-0.191082 0.0761985 -0.744911 
-0.055949 0.17628 -0.254669 
0.0273421 0.00724594 -0.0340792 

-0.102658 0.116575 0.285378 
-0.0959537 0.0539078 -0.169911 
0.00322942 0.0146331 0.078156 

0.00578782 0.0401991 0.0384062 
-0.032805 -0.000765084 0.0173941 
-0.0070741 0.0246826 -0.0256781 

-0.0114921 0.00395455 0.00232963 
-0.00619884 0.00417674 0.0110499 
-0.00180586 -0.00203182 -0.00900645 

-0.00208028 -0.0618714 0.0787358 
0.0787765 -0.000619786 -0.123261 
0.0021666 0.00030843 0.0519718 

0.0117163 -0.0643212 -0.0544875 
0.0887872 0.0107963 0.112437 
-0.00225747 0.0010029 -0.00380649 

0.0423821 -0.0764136 -0.293361 
0.141311 -0.0357961 -0.5426 
-0.0108529 -0.0024433 -0.0923281 

0.00260251 0.015466 0.0136259 
-0.0238017 -0.0153435 0.0374856 
-0.000666234 0.0026073 0.0548679 

-0.709276 -1.74338 -0.363943 
0.369531 0.265497 -0.39092 
0.0127784 -0.00511049 0.308434 

-0.224088 0.136983 -0.0621298 
-0.0909885 0.154172 0.120427 
-0.0293671 0.0184593 0.152087 

0.0531746 -0.112501 0.04722 
0.127194 -0.0142445 0.531997 
-0.000770634 -0.0139274 0.813523 

-0.0103564 0.00563723 -0.0372508 
-0.00381747 0.00240724 -0.0182895 
0.00349371 -0.00140458 0.0343867 

0.00545333 -0.0409491 -0.118485 
0.040209 -0.00722608 0.176853 
0.0345242 -0.0113052 0.129625 

-0.00943208 0.0104866 -0.0224148 
0.0205019 -0.016655 0.046437 
-0.00412285 -0.000673629 0.040012 

-0.0129637 -0.00324773 -0.162091 
0.000130471 0.0072806 0.699505 
-0.000325525 -0.00168734 0.268389 

-0.314195 -0.141074 0.114207 
0.334818 0.383081 -0.551568 
0.0804182 0.0155145 0.0913558 

0.00195657 0.00426991 -0.0053531 
-0.00270643 -0.0263434 0.00069757 
-0.000699974 0.000203551 0.0753677 

-0.0932908 -0.145825 -0.715045 
0.0618999 0.0697461 0.105141 
0.00851669 -0.0119877 0.250255 

0.0575453 0.0363227 0.00227399 
-0.00737585 -0.123308 -0.0236314 
0.00571867 0.0162445 0.0664937 

-0.288396 -0.951601 0.298615 
0.227682 0.270753 -2.03934 
0.0211881 -0.0341385 -0.00765754 

-0.000576621 -0.000503698 -0.0775956 
-0.00388446 -0.0328819 0.0689257 
0.000346139 0.000273609 0.0740767 

-0.590969 0.258146 0.253841 
-0.681282 0.517232 0.189751 
-0.000526527 0.0084037 0.0468113 

-0.00279919 -0.00268521 0.0111838 
-0.00695162 -0.0297597 0.0228494 
-0.00255033 -0.00130395 0.0624384 

0.0029343 -0.0157065 -0.00274959 
0.00754485 -0.0487355 -0.00249157 
0.000257584 -0.00154713 0.0707063 

-0.0115634 -0.00962347 0.267738 
-0.0123789 -0.00787347 -0.00897761 
-0.000552814 -0.00196304 0.168052 

-0.142146 0.135523 1.04822 
-0.218581 0.0630609 0.599412 
-0.00413061 -0.00696512 -0.0218997 

0.0581607 0.114687 1.28353 
0.241854 0.083857 0.944816 
0.00745759 0.0021946 0.0611917 

-0.00673324 -0.0707946 0.0391953 
0.0948947 0.0299174 0.044102 
0.00315834 0.000741977 -0.04611 

0.013287 -0.0427122 -0.0959364 
-0.00219674 -0.0440107 0.0934076 
-0.0108974 -0.0239018 0.0807392 

-0.302098 0.300008 1.33717 
0.387397 1.18911 -0.258159 
0.00174366 0.0438541 0.698436 

-1.22882 -1.47449 -0.814264 
1.14466 1.15843 0.131957 
-0.0184067 -0.0195932 0.167659 

-0.0110082 0.000829837 0.282734 
0.00198994 0.00277302 -0.0887911 
-0.000828022 -0.000742615 0.0277731 

0.0200992 -0.182918 1.7619 
0.0692528 0.0454112 -1.03565 
-0.0113365 0.00224688 1.03641 

-0.222224 0.111512 -0.928151 
-0.0959964 0.138017 -0.636365 
0.0283444 0.00842089 -0.0127442 

-0.00754494 0.0103379 0.000606945 
0.00351524 -0.0200809 0.0124289 
0.00718433 -0.00528537 0.0384426 

0.210615 0.120528 0.0546126 
-0.267525 -0.227919 0.403724 
-0.00432787 0.0417522 0.0421279 

-0.00420839 -0.0333321 -0.0206049 
0.0223498 0.00383365 -0.00296034 
0.00127194 5.62122e-05 0.011397 

0.015345 0.0135231 0.0625008 
0.079219 -0.0577988 -0.156823 
-0.014776 -0.0039645 0.115727 

-0.0138557 -0.00822379 -0.0283354 
0.0518342 -0.0147695 -0.269349 
-0.00758327 -0.00287773 0.171541 

-0.225943 0.185319 -0.038528 
0.0386639 0.166331 -0.430315 
-0.0344362 -0.0126147 0.115046 

-0.040913 -0.788224 1.41637 
0.152363 0.387056 -0.125887 
0.0364611 0.0135029 -0.0501616 

-0.224763 -0.329505 1.02888 
0.16887 0.26404 -1.03358 
-0.0523823 0.007213 0.14058 

-0.0145553 -0.00632613 -0.043073 
-0.00688938 0.00114288 -0.0253082 
0.00481342 0.00258325 0.0399398 

-0.00689306 -0.0107914 -0.00638602 
0.017314 -0.00130486 -0.00318025 
0.000782333 -0.000492374 0.0172539 

-0.0507966 0.0163685 -0.392252 
0.0200554 0.0778566 -0.411321 
0.00388236 0.00274033 0.0724049 

-0.179429 0.0923722 -3.96141 
-0.0269842 0.139658 1.98522 
0.0163827 0.000660492 0.379176 

-0.00591471 -0.0107745 0.0114276 
0.00297734 -0.00947585 0.0447598 
0.000396319 -0.000297717 0.0396278 

0.0145079 -0.144132 0.174004 
0.150983 0.0458497 0.225603 
-0.0183115 0.0329042 0.513149 

-0.0783345 -0.121993 0.845774 
0.0501488 0.0836198 -0.854675 
0.0310315 -0.0322165 -0.273866 

0.0246643 0.0891583 0.0365126 
-0.0847086 0.0196102 0.0057551 
6.90915e-05 -0.00106969 -0.0583874 

-0.00991869 -0.0134406 0.0671961 
0.0597319 -0.0182449 0.0281819 
-0.000410373 0.00391899 0.0395931 

-0.0242807 -0.00574328 0.0256142 
0.00529761 -0.0104737 0.00381813 
0.00408991 0.000754686 0.0509517 

0.0796047 0.0276166 -0.16838 
-0.0286147 -0.0170758 -0.0519502 
-0.00328251 -0.00555078 -0.0503692 

0.0162921 -0.0360394 0.103791 
0.0313771 -0.0218319 0.131849 
0.00625864 -0.00261198 0.0198004 

0.00950186 -0.00270993 0.237434 
0.0283058 -0.040111 0.0668885 
-0.00182316 -0.00151274 0.0290269 

-0.198673 -0.161626 0.281016 
-0.233249 0.162471 -0.18628 
0.00521749 -0.0121276 -0.0718557 

0.148417 -0.500958 -0.364525 
0.154006 0.0466301 0.0362408 
0.00661687 0.0285357 -0.00836363 

-0.0443525 -0.0434247 -1.1105 
0.0372219 0.0495715 -1.86575 
0.00878 -0.00106629 0.360065 

0.0578882 0.126734 -0.267923 
-0.168905 -0.0229295 -0.0224046 
-0.0127832 0.00543091 0.00679058 

0.00152338 -0.0956809 -0.0536864 
0.0525639 0.0133898 -0.00958233 
0.00233136 -0.00408121 -0.0333744 

-0.167956 0.0143451 9.09814 
0.0997917 0.0197396 -14.3325 
-0.013083 -0.0159508 -0.119469 

-0.0128816 0.359521 0.0736791 
-0.0919479 0.131001 -0.270358 
0.0629935 0.0558533 0.39272 

-0.0142523 -0.0710128 0.0376132 
0.0853931 0.0360616 -0.016593 
0.000505904 0.00249735 -0.0248481 

0.00083657 0.00105505 -0.00735364 
0.0105304 -0.0255833 0.0176577 
-0.000334429 0.00212112 0.0821862 

0.0230897 0.375382 -1.53573 
-0.236129 0.16046 -0.874086 
-0.0230203 -0.00340257 0.0979827 

-0.125266 0.0849882 0.235759 
-0.064045 0.0809143 0.347438 
0.0632633 0.0106678 0.498214 

-1.81311 -1.4028 -0.191268 
-1.0187 0.396641 0.459989 
-0.0651145 0.0350646 0.424606 

-0.104724 0.0989342 -0.225201 
0.151128 0.165221 1.80084 
-0.0164611 0.00951464 0.325667 

-0.0362159 0.00403893 -0.0256458 
-0.0196344 0.0348936 0.0780392 
0.00857411 -0.0150322 0.166811 

-0.244547 0.534363 -90.377 
0.0279976 0.0457584 -6.15946 
0.000165728 0.000750866 -0.231161 

0.00688464 -0.00888802 -0.0470707 
0.0174893 -0.0306384 -0.0638013 
0.00242054 0.000666885 0.0856322 

-0.00728601 0.0943102 -0.0670207 
-0.0530534 0.0499206 0.0234137 
0.00188104 -0.00345108 0.0239058 

0.0115364 0.00840711 0.00149909 
-0.00637348 -0.0303315 -0.00711737 
0.00303136 0.000748268 0.0547515 

0.00279168 -0.000226516 0.011296 
-0.0120072 0.013429 0.131687 
0.00177235 -0.00227565 -0.118003 

0.0435843 0.00219226 -9.0342 
-0.0953068 0.0565221 8.88017 
0.00835771 -0.00151562 0.425213 

-0.643465 -1.5292 3.37691 
0.293556 -0.210274 15.0207 
-0.0137301 0.0200181 0.862603 

-0.156452 0.193058 -0.483816 
-0.00197662 0.2666 -1.51303 
-0.0697676 0.0359239 -0.557269 

-0.0124597 0.00566285 -0.0600743 